LAMMPS (17 Apr 2024)
OMP_NUM_THREADS environment is not set. Defaulting to 1 thread. (src/comm.cpp:98)
  using 1 OpenMP thread(s) per MPI task
Loaded 1 plugins from C:\Users\emanu\AppData\Local\LAMMPS 64-bit 17Apr2024\plugins
# ---------------------Definizione dell'unità e dello stile degli atomi---------------------
units        lj
atom_style   atomic

# ---------------------Creazione della scatola e degli atomi---------------------
# La simulazione riguarda una miscela binaria A e B con proporzioni 80% A e 20% B.
# Dobbiamo creare una scatola cubica e inserire gli atomi con le proporzioni desiderate.
lattice      fcc 0.8442
Lattice spacing in x,y,z = 1.6795962 1.6795962 1.6795962
region       box block 0 9.4 0 9.4 0 9.4
create_box   2 box
Created orthogonal box = (0 0 0) to (15.788204 15.788204 15.788204)
  1 by 1 by 1 MPI processor grid
create_atoms 1 random 800 87287 box
Created 800 atoms
  using lattice units in orthogonal box = (0 0 0) to (15.788204 15.788204 15.788204)
  create_atoms CPU = 0.001 seconds
create_atoms 2 random 200 98234 box
Created 200 atoms
  using lattice units in orthogonal box = (0 0 0) to (15.788204 15.788204 15.788204)
  create_atoms CPU = 0.000 seconds

# ---------------------Potenziale di interazione---------------------
# Le particelle interagiscono tramite un potenziale di Lennard-Jones modificato, con i parametri specificati nell'articolo.
pair_style   lj/cut 2.5
pair_coeff   1 1 1.0 1.0 2.5
pair_coeff   1 2 1.5 0.8 2.5
pair_coeff   2 2 0.5 0.88 2.5

# ---------------------Parametri di simulazione---------------------
# Impostiamo la massa delle particelle e creiamo una velocità iniziale.
# Usiamo un integratore nve per conservare l'energia e la quantità di moto.
mass         1 1.0
mass         2 1.0
velocity     all create 0.01 87287
fix          1 all nve

# ---------------------Integrazione del sistema e raffreddamento---------------------
# Il sistema viene inizialmente riscaldato a una temperatura elevata (T=5.0) per l'equilibratura.
# Poi, raffreddiamo gradualmente il sistema fino alla temperatura desiderata, ad esempio T=0.466.
thermo       100
thermo_style custom step temp pe ke etotal
timestep     0.001
run          10000
Generated 0 of 1 mixed pair_coeff terms from geometric mixing rule
Neighbor list info ...
  update: every = 1 steps, delay = 0 steps, check = yes
  max neighbors/atom: 2000, page size: 100000
  master list distance cutoff = 2.8
  ghost atom cutoff = 2.8
  binsize = 1.4, bins = 12 12 12
  1 neighbor lists, perpetual/occasional/extra = 1 0 0
  (1) pair lj/cut, perpetual
      attributes: half, newton on
      pair build: half/bin/atomonly/newton
      stencil: half/bin/3d
      bin: standard
Per MPI rank memory allocation (min/avg/max) = 3.123 | 3.123 | 3.123 Mbytes
   Step          Temp          PotEng         KinEng         TotEng    
         0   0.01           6.667935e+08   0.014985       6.667935e+08 
ERROR: Lost atoms: original 1000 current 395 (src/thermo.cpp:494)
Last command: run          10000
