ITEM: TIMESTEP
150
ITEM: NUMBER OF ATOMS
1000
ITEM: BOX BOUNDS pp pp pp
0.0000000000000000e+00 9.4000000000000004e+00
0.0000000000000000e+00 9.4000000000000004e+00
0.0000000000000000e+00 9.4000000000000004e+00
ITEM: ATOMS id type x y z vx vy vz
1 1 0.584906 0.244544 0.0194052 -3.06972 -2.84591 -0.577409
2 1 2.04504 0.109238 9.3871 -0.377136 -0.300482 0.70349
3 1 3.08507 0.949644 9.14483 1.10741 -1.86156 0.553784
4 1 3.56577 0.313979 0.589214 -1.32117 1.28527 0.258438
5 1 4.02895 0.915187 7.90756 -0.456946 0.902754 -3.44369
6 1 4.18176 9.12227 8.4086 -3.05537 -0.765584 -3.0351
7 1 6.24433 0.841208 0.475664 1.0994 -0.43779 -3.13633
8 1 6.76641 0.675136 9.10562 1.73604 0.680746 -0.346991
9 1 7.74291 0.445126 8.86681 1.82738 -0.263853 -2.22588
10 1 8.65701 0.365336 0.140747 -0.210161 -3.07924 -0.72328
11 1 0.421068 1.07517 0.698677 -1.92935 0.632566 0.849184
12 1 1.35051 1.56353 0.274266 2.46631 -2.98734 -0.897335
13 1 2.14147 1.0784 0.267315 1.83249 -1.02583 1.31061
14 1 3.02814 1.1747 0.715398 -0.408555 -1.37391 1.34238
15 1 4.02479 0.955788 9.23767 -0.285704 1.11574 -2.45364
16 1 5.132 0.393376 0.0832588 0.61377 -0.266883 -1.84242
17 1 6.31631 1.47006 8.82276 0.725258 1.1114 -2.70837
18 1 6.78228 1.60349 0.84422 2.17084 -1.64259 -2.38238
19 1 7.6848 0.989978 0.334963 -0.406351 -0.405291 2.54928
20 1 9.03122 1.55204 0.0774707 0.417299 0.254476 -0.418868
21 1 0.596071 2.04732 0.208942 0.862717 0.590389 -1.19828
22 1 1.3811 2.43963 0.677531 2.6425 -0.975085 -0.350436
23 1 2.38625 2.04569 9.33454 1.00693 -1.06984 0.522435
24 1 2.92173 2.88597 0.410342 -1.15329 1.02789 -0.847469
25 1 4.24303 2.17419 0.157396 0.265348 -1.25419 -0.066797
26 1 5.14574 1.7359 0.409718 1.68463 2.04472 2.06585
27 1 6.30958 3.05789 9.03105 -0.685735 2.06465 0.583746
28 1 7.18871 2.61054 9.26285 0.195764 -1.8459 -0.755656
29 1 8.03684 1.93351 0.0621434 -3.12865 -4.55002 0.909455
30 1 9.21255 2.41565 9.03898 0.471983 -1.45977 -3.35765
31 1 0.463786 2.90319 0.407776 -0.327057 0.113584 -1.58413
32 1 1.3135 3.3791 9.34346 1.90631 0.798093 -1.20844
33 1 2.05273 3.11245 0.62579 -0.758547 2.54073 -2.29422
34 1 3.5771 3.87777 9.34735 0.112408 2.34724 -0.226769
35 1 3.83922 3.11726 0.761274 -2.52484 -0.515682 0.788131
36 1 5.12872 2.71997 0.521342 1.4869 0.077167 0.654111
37 1 6.16201 3.96098 9.31813 -1.55208 0.210448 0.532945
38 1 7.14318 3.76187 8.97236 -0.746107 0.714855 -0.909311
39 1 8.1252 2.77539 9.01672 0.0319852 -0.776231 -0.543013
40 1 8.4435 3.53353 0.525871 1.82134 -2.69345 -0.764811
41 1 0.438845 3.77269 9.06619 -0.490219 0.517974 -0.429355
42 1 1.13941 4.41043 0.153942 -0.139599 -1.05209 -0.273627
43 1 2.26345 3.83293 9.25554 0.502745 -1.1287 2.67591
44 1 2.75874 5.07051 9.19538 -1.36524 -0.367828 -0.895927
45 1 4.46753 4.25358 -0.0111967 1.68591 1.19837 -4.3659
46 1 5.12237 4.31958 0.692876 1.76934 1.0456 -1.20538
47 1 6.21105 5.09316 8.89426 3.46864 2.57112 0.126608
48 1 7.47231 5.07511 0.368393 2.74781 0.466609 -1.03602
49 1 7.61958 4.09604 0.431772 -1.02822 -2.62539 -0.53334
50 1 9.00002 4.44678 0.366662 -1.12485 -0.0752017 1.35253
51 1 9.12106 4.66947 8.70504 -0.527171 1.14256 -1.46952
52 1 1.38785 4.81904 8.59706 -1.17997 1.21427 1.10732
53 1 2.85285 4.73037 0.611427 2.94241 -0.729993 1.24363
54 1 3.06894 5.91472 8.78224 1.84314 1.53565 0.451399
55 1 3.61097 5.12087 0.303548 1.15482 -0.531336 -0.0298228
56 1 4.83865 5.16672 0.340802 -6.73774 1.91072 0.784874
57 1 5.70701 5.74523 9.3216 3.16535 0.412588 1.3373
58 1 6.72328 5.73577 0.31918 -4.15009 4.47764 3.11987
59 1 8.21339 4.96424 9.04101 -4.74544 1.97356 -1.92478
60 1 0.123116 5.61955 9.04839 0.0488018 -4.67071 0.671955
61 1 0.561098 6.34877 0.646028 0.113538 -2.08316 -0.767751
62 1 1.54175 5.4805 9.37662 1.91379 -2.56166 2.56192
63 1 1.98176 5.78774 8.45007 -5.12457 -1.23594 -1.35582
64 1 3.29547 6.19045 0.470704 0.891046 -0.889005 -0.400554
65 1 4.41825 5.91196 0.937419 -0.763414 0.437027 -0.434735
66 1 5.13221 6.49696 0.279685 0.419283 -0.855023 -1.481
67 1 5.78006 6.67474 8.72351 1.72377 -1.26795 -1.42763
68 1 6.26276 6.54975 0.0952522 1.69294 0.314849 -0.229997
69 1 8.47996 5.85411 9.33007 -2.18675 0.652149 -2.57754
70 1 9.21757 6.5167 0.182295 2.39052 -3.2738 -1.24915
71 1 0.66632 6.76964 9.15169 2.20587 -0.212526 -2.76106
72 1 1.20298 7.19117 0.442226 -0.794233 1.7165 -1.00279
73 1 1.77798 6.61057 9.19675 -3.02812 0.541057 -0.0283364
74 1 3.55391 7.2326 0.32054 2.92479 1.13501 -1.06943
75 1 3.00764 6.96779 8.84327 -0.915445 0.605727 -2.79245
76 1 3.94118 6.51555 9.21752 -3.5276 2.03925 -2.21479
77 1 5.77179 7.50803 9.33065 -1.1624 1.10644 -1.55462
78 1 6.90523 7.254 0.216724 -2.73484 -1.89501 1.71409
79 1 8.56681 7.09689 0.755649 2.02623 2.38828 -1.34984
80 1 0.194835 7.41182 0.562087 0.267854 3.70913 -1.23224
81 1 0.761561 8.15752 0.548888 -0.129459 2.99857 -0.95214
82 1 1.14226 8.17291 8.92467 -1.27062 0.32095 -3.13952
83 1 2.0481 7.54732 0.0643854 -4.11035 -1.25851 -1.07986
84 1 3.02647 8.14287 9.31405 -2.56369 2.30031 1.62451
85 1 4.11242 8.12315 9.05321 -1.56094 0.592001 -3.1543
86 1 4.82909 7.07267 9.02402 -1.92782 -1.98741 -2.88786
87 1 5.87636 8.31984 0.71188 -0.0995569 2.39229 0.652711
88 1 6.79259 8.11688 0.700228 -0.297225 1.73008 -0.145031
89 1 7.82826 7.32474 9.13612 1.01804 -0.784259 -2.39948
90 1 8.50081 8.02948 9.30992 -2.89714 -4.09945 -0.0966994
91 1 9.34638 8.84593 0.264241 -0.986801 -2.02021 -1.60767
92 1 1.29202 9.00648 0.267886 -0.392692 -1.36789 -1.74472
93 1 2.2287 8.63658 9.27212 -1.22787 -2.05348 -2.97547
94 1 3.34184 9.24078 8.96752 1.87164 2.56766 -1.47829
95 1 4.48559 9.00303 9.37263 0.313508 1.27843 -0.647564
96 1 5.70954 8.39644 8.85645 2.35172 2.31028 -0.949948
97 1 6.02745 9.32111 0.102039 -0.196796 -2.1165 -1.56821
98 1 6.98964 8.74226 9.35556 -2.13711 -1.15723 -0.42556
99 1 7.76835 8.44665 0.436898 1.3751 -2.21103 1.84007
100 1 8.64757 9.07424 0.804399 0.424115 -1.69036 2.201
101 1 0.697785 0.597945 1.43952 0.448793 -0.546876 2.99275
102 1 1.41576 0.636083 0.960358 -0.519194 -0.387354 -1.60398
103 1 2.56461 0.211014 0.98573 -0.724344 -0.23273 1.06488
104 1 3.61085 0.708769 1.66964 -1.84739 -3.31621 -1.45692
105 1 4.43752 0.797391 0.722369 -1.29984 -0.0865273 -5.1571
106 1 5.51125 0.572145 1.19527 -0.658467 3.26075 1.1186
107 1 6.39201 0.57704 1.64522 0.83014 0.455534 -0.790264
108 1 7.20073 0.764928 1.09753 3.07364 1.27888 2.16297
109 1 7.87659 9.3838 0.342889 0.872258 0.458224 -3.26963
110 1 9.18191 0.470866 1.14128 -0.608777 1.29964 -1.56615
111 1 0.0466779 2.06187 0.979097 2.2127 1.39528 -0.146974
112 1 0.813003 1.52028 1.43874 0.78132 -0.512967 0.715057
113 1 1.99822 1.37361 1.23012 -3.52795 1.76141 -1.02949
114 1 2.92808 1.43573 1.69086 -1.43635 -2.12024 -0.490971
115 1 3.94369 1.47917 0.942479 -0.635554 0.231272 -0.858346
116 1 4.83341 1.37696 1.44785 -0.31648 1.6763 0.204115
117 1 5.73743 1.51689 1.14037 -3.13103 0.955875 1.86886
118 1 7.00025 1.58072 1.7287 -0.897214 1.23031 -0.336067
119 1 7.78716 1.75551 1.13426 -0.754516 2.42702 -0.665919
120 1 8.69173 1.42053 0.947399 0.708698 0.399273 -1.64689
121 1 0.769436 2.5524 1.40298 0.155841 1.25284 -0.42452
122 1 1.87066 2.40287 1.43394 0.894205 -0.963246 1.69518
123 1 2.70071 2.03701 0.897992 1.30113 0.740537 -1.51313
124 1 3.47322 2.15874 1.43012 0.430636 -0.513157 -1.98598
125 1 4.39169 2.3261 1.12882 -0.0573428 2.00519 -1.04071
126 1 5.38749 2.35613 1.64446 -0.507114 2.84889 -3.23272
127 1 6.65648 2.57441 0.563566 -0.1773 -1.10613 -2.53538
128 1 7.2604 2.67871 1.55862 -1.79992 -1.12028 -0.341248
129 1 8.48061 2.38831 1.63294 1.17075 -0.166598 -0.982815
130 1 8.69276 2.59211 0.560205 1.9237 0.596733 0.619575
131 1 0.0344734 3.23793 1.21285 -0.663788 0.799695 -2.36828
132 1 1.13655 3.39932 1.01114 0.290002 0.806775 0.0412686
133 1 1.88036 3.43236 1.68875 -0.117871 1.93243 2.89841
134 1 2.93366 3.16234 1.32913 0.576597 0.0390054 -1.86133
135 1 3.6808 2.8842 1.88225 -0.405215 -0.617647 3.7322
136 1 4.71609 3.11453 1.41214 -0.937231 1.12183 0.191557
137 1 5.7938 3.36355 1.18662 0.763213 3.52543 0.0147375
138 1 6.77272 3.54463 0.875351 -3.02148 -1.02622 1.0184
139 1 7.69679 2.81193 0.741129 -1.2318 -2.1248 -1.92174
140 1 8.61405 3.41307 1.6013 1.23171 2.92713 -2.11114
141 1 1.11699 4.36963 1.21108 1.64464 0.898555 -1.33789
142 1 1.87885 4.13023 0.650845 -0.531801 -2.67889 2.71976
143 1 2.95767 3.81247 0.66947 1.29355 -1.56427 -0.0251834
144 1 3.86144 4.23761 0.875767 1.30518 2.92134 -1.35396
145 1 4.00817 3.91449 1.76407 -2.60479 -1.41014 0.426565
146 1 5.90781 4.42391 1.44794 0.191501 -1.37627 -1.04785
147 1 6.74752 4.45905 0.767517 -1.28138 1.03661 1.4666
148 1 7.5301 4.57625 1.31986 1.64725 2.86032 1.3531
149 1 8.47128 4.34944 1.15234 -1.56564 -0.785823 0.906014
150 1 0.473419 3.85997 0.620326 -1.30144 -1.11128 -0.669008
151 1 0.942761 5.35327 1.18563 1.16495 1.17048 2.63031
152 1 1.85683 5.10248 0.809816 -3.0695 0.567925 -1.3303
153 1 2.82194 4.99441 1.72948 1.30242 -1.67782 -0.432836
154 1 3.68811 5.29639 1.30447 0.341412 -0.15376 1.91248
155 1 4.44811 4.8486 1.60477 0.578429 2.02017 0.98201
156 1 5.16898 5.40711 1.38522 -2.2079 0.804778 -0.00041347
157 1 6.04488 5.13807 0.727395 0.240138 0.530188 -4.00576
158 1 7.4459 5.63428 1.19857 3.00106 4.32599 -1.01818
159 1 8.28751 5.2812 0.929133 1.82508 1.42956 1.40518
160 1 0.0689796 4.9026 1.08046 0.266979 -3.04615 2.07294
161 1 0.272264 5.82666 1.57075 1.73968 -1.53342 -1.06658
162 1 1.54795 6.17095 0.923498 1.73694 -1.75668 -1.14389
163 1 2.40699 5.96936 0.270899 3.31074 1.34806 2.86677
164 1 3.5283 6.3973 1.40557 -0.0907584 -3.54188 1.99087
165 1 4.41106 5.89537 1.87182 0.998274 3.30143 2.06709
166 1 5.28613 6.49475 1.48638 0.628203 -1.65037 1.09114
167 1 6.15566 6.23973 1.03724 -2.07589 -1.73279 -0.229706
168 1 6.96132 6.27052 1.81051 2.44919 -0.984124 -1.47544
169 1 8.08799 6.22024 0.826427 1.41286 -0.046682 1.18754
170 1 9.05373 6.00466 0.922927 1.99222 1.22464 -0.955437
171 1 0.932745 7.16647 1.3789 0.126849 -0.693723 4.17522
172 1 1.93467 7.3695 1.37046 0.182216 -0.589757 0.473288
173 1 2.62112 6.75542 0.868891 0.446532 -0.221288 3.55907
174 1 3.70093 7.51057 1.22464 -1.40227 1.94938 -2.90216
175 1 4.65798 7.22067 1.03833 0.0994577 3.61029 1.35387
176 1 5.7714 7.15729 0.781057 2.67826 -0.158245 4.17155
177 1 6.74368 7.18307 1.16967 -2.94883 -0.842029 2.07402
178 1 7.83714 6.91779 1.81317 0.0123291 1.6066 2.54982
179 1 8.68265 7.52188 1.74639 -0.048096 2.10645 0.99706
180 1 0.019682 6.7963 1.40372 0.150568 -1.79186 -2.27547
181 1 0.121558 7.98877 1.39291 1.23939 -0.458942 -1.15789
182 1 1.22643 8.25149 1.53516 -2.67073 -1.59614 3.98372
183 1 1.74409 8.19723 0.717539 0.683128 1.59065 0.619542
184 1 2.7932 7.72949 0.840333 2.73795 1.35233 -1.12081
185 1 3.88006 8.37285 0.771472 -1.99178 -0.280327 0.384653
186 1 4.93723 8.01165 0.401754 -3.43662 0.605119 -1.03369
187 1 6.14815 7.91168 1.64436 1.29819 0.0235022 0.683
188 1 6.895 8.43257 1.6612 -0.0276541 -0.357988 2.56002
189 1 7.78418 7.69064 0.985496 -0.411551 -2.62265 1.57557
190 1 8.68776 8.2345 0.984417 1.25321 1.95337 -1.44833
191 1 0.529652 8.98218 1.05631 -0.846963 -0.704146 1.74847
192 1 1.34322 9.25523 1.67278 1.8981 0.727104 -0.331563
193 1 2.1366 8.75179 1.54631 2.09211 -1.71352 2.86677
194 1 3.02644 8.85019 0.764994 1.13553 -2.33271 -1.91963
195 1 4.22721 9.30714 1.1959 -2.26878 -0.46016 -3.5222
196 1 5.13916 8.97851 0.705148 -2.41342 -2.86865 4.70149
197 1 6.23604 8.96869 1.27055 -1.1116 -0.928963 -0.885866
198 1 6.97198 9.31911 0.842867 1.12485 1.29238 0.528739
199 1 7.57197 8.805 1.34454 -0.0325224 0.027389 -0.957251
200 1 9.02003 9.11733 1.69237 1.67294 2.41834 1.00769
201 1 0.549841 0.876117 2.41083 -3.43258 -1.01476 -0.199061
202 1 1.00921 9.22161 2.80879 -2.14527 -2.72929 -0.704179
203 1 2.20745 0.308317 1.77765 -3.25707 2.22437 -0.115308
204 1 3.06597 0.49661 2.50271 2.38351 1.41684 1.06919
205 1 4.59971 0.390063 1.90856 -0.899729 0.849148 -0.0653727
206 1 5.51959 0.609838 2.15505 -2.69123 1.07502 -0.119455
207 1 6.37631 0.960234 2.69509 -0.684597 3.66283 1.71896
208 1 6.98316 9.32378 1.91246 -0.675881 -0.246736 0.0521719
209 1 8.27597 0.378919 1.38278 -1.71629 1.43721 0.74574
210 1 9.11675 0.431195 2.39338 -0.56146 -0.841102 -2.30205
211 1 0.858454 1.81497 2.24466 0.860807 0.291836 1.40021
212 1 1.43294 0.880407 2.0287 1.50761 -1.24132 -0.721434
213 1 2.81669 1.54676 2.65203 2.65092 -0.984905 -1.15328
214 1 3.75409 1.25291 2.35812 -1.93296 0.684085 2.62063
215 1 4.90735 1.78196 2.26973 0.432985 -2.14743 0.120343
216 1 5.82733 1.53158 2.06859 -0.863918 0.031368 -0.413079
217 1 6.62251 2.0726 2.53903 3.44382 -1.68941 2.45558
218 1 7.2292 0.8252 2.19596 1.20603 0.435125 0.682976
219 1 8.21025 1.30309 2.09362 0.0753566 2.17668 3.19857
220 1 9.21891 1.33708 1.75776 0.457576 -0.107902 -2.18593
221 1 0.464881 3.25344 2.74678 0.909919 -1.12664 -2.62124
222 1 2.00749 1.8184 2.13845 -5.10759 -0.81287 0.187587
223 1 2.7431 2.48313 2.00467 2.80049 0.958738 -1.5606
224 1 3.74839 2.14625 2.68354 1.15537 0.514998 2.00841
225 1 4.63306 2.66482 2.61094 -1.86086 0.852116 -0.197002
226 1 5.51347 2.43681 2.74549 1.31022 0.538253 -0.309724
227 1 6.33054 2.60694 1.72223 -0.836613 -1.90964 1.11971
228 1 7.5446 2.06441 2.33375 4.19887 2.51229 -0.776261
229 1 7.89468 3.03792 2.22428 1.95257 2.23326 0.768728
230 1 9.38132 2.54653 2.00818 0.821324 1.01314 -0.878275
231 1 0.711433 3.53211 1.87377 2.12867 -0.867926 1.93273
232 1 1.30662 2.87747 2.29459 -2.02556 2.05677 -2.10512
233 1 2.21904 3.17671 2.52031 3.20351 0.174617 -2.782
234 1 3.07718 3.59496 2.25857 0.471908 -2.40953 -2.16076
235 1 3.7163 3.09304 2.96577 -0.488203 -1.40079 -1.19324
236 1 5.48361 3.19682 2.1839 1.51729 1.56072 1.46383
237 1 6.24599 3.65578 1.95191 0.895575 0.477734 0.915109
238 1 6.81118 2.99539 2.38283 1.49539 1.99751 -1.67105
239 1 7.61054 3.56939 1.45419 -1.37807 0.759452 -2.86153
240 1 8.89278 3.22172 2.69948 -0.502465 -1.78364 0.842269
241 1 0.649356 4.46815 2.97203 0.345533 1.52954 0.590105
242 1 1.40503 3.88506 2.39695 -0.3635 -0.901126 2.92268
243 1 2.73108 4.07681 1.51889 0.914775 0.9889 -1.64936
244 1 3.55331 4.57255 2.33952 0.755913 -0.76814 -1.45227
245 1 4.28031 4.19127 2.74344 1.27147 -0.478128 -0.752312
246 1 5.06206 4.08761 1.80317 0.223232 -1.42981 1.90891
247 1 6.55261 5.191 1.48977 2.14003 -0.315299 -0.592607
248 1 6.9683 4.22252 1.96787 -1.51459 0.490523 -3.37762
249 1 8.37584 4.18376 2.09971 2.76223 0.86886 -1.82641
250 1 9.34091 4.07057 1.6372 1.34915 -3.95608 -1.28858
251 1 0.503749 4.82295 1.94651 0.667594 0.601392 -0.518071
252 1 1.91843 4.42865 1.90531 1.09969 0.0645932 -2.52543
253 1 2.34746 4.24642 2.73991 -3.34197 -3.05269 2.39537
254 1 3.52058 5.75349 2.16321 4.10333 4.02197 0.141279
255 1 4.23121 5.20142 2.57862 -0.472921 -1.30691 -0.033694
256 1 5.26439 5.18121 2.2638 0.198664 4.14423 -1.6064
257 1 6.21335 5.83918 2.08913 0.0185852 -1.32106 1.18613
258 1 7.56569 4.69144 2.55668 1.65585 0.0416069 -0.61164
259 1 7.98839 5.56063 2.19616 1.19485 1.93187 1.57323
260 1 8.89895 5.27401 1.79851 0.830348 -1.14697 1.09016
261 1 0.293112 6.11402 2.55769 -1.0554 1.10847 -1.76365
262 1 1.46744 5.2845 2.06597 -0.194308 -1.16909 -1.84515
263 1 2.69798 5.7841 1.29844 -1.85394 -0.322277 -0.43512
264 1 2.99322 6.36468 2.67785 -4.3014 0.88196 -3.05802
265 1 4.18133 6.36322 2.64255 0.430648 0.734293 -0.292082
266 1 5.22451 6.17935 2.35393 2.53725 0.236663 2.50661
267 1 6.08645 6.73125 2.08059 -1.83767 1.511 -1.63635
268 1 6.99928 5.54001 2.46769 -2.5408 2.70688 2.46532
269 1 7.60022 6.40622 2.53484 -0.134738 0.684453 -0.0996435
270 1 8.58556 6.27903 1.86886 -0.100021 -1.20589 -2.2524
271 1 1.18578 6.44634 1.95296 -3.08639 1.28654 -2.94214
272 1 2.08854 6.5195 1.80479 -0.966112 1.79778 -0.951107
273 1 2.93296 7.20167 1.86844 0.763444 -1.74181 -0.246332
274 1 2.95229 7.45882 2.78072 -2.35353 0.157076 -2.2686
275 1 4.18391 6.97298 1.93795 -0.633276 0.726088 2.3602
276 1 5.36273 7.44971 1.6713 2.8403 -0.981414 -2.67441
277 1 6.03778 7.43282 2.67331 1.4989 1.70648 0.206868
278 1 6.70966 6.71129 3.04322 3.41078 -3.16954 -2.26183
279 1 7.88216 7.38195 2.75374 2.35067 0.598896 -2.26411
280 1 8.78556 6.87931 2.58412 2.60928 -0.992286 2.9625
281 1 0.581167 8.30253 2.6091 0.346616 1.89047 2.31913
282 1 1.37751 7.44043 2.294 2.46989 -1.89323 -0.32935
283 1 2.23645 7.7686 2.25903 0.658865 -1.21505 -1.69874
284 1 2.95287 8.17171 1.79012 0.904579 0.799593 -3.6197
285 1 4.72173 8.32561 1.35615 3.65961 0.434352 -1.51225
286 1 5.56082 8.21441 2.23076 1.13223 -0.912756 1.98512
287 1 6.48029 8.28478 2.55873 2.01119 -1.7327 -2.03594
288 1 6.9053 7.35927 2.1678 -3.55535 1.14527 -1.28627
289 1 7.85187 8.04675 1.94549 -1.24889 -2.81459 -1.83068
290 1 8.96028 8.18868 2.49262 -1.3432 3.44482 -0.557459
291 1 0.459157 9.35529 2.00479 1.05502 -0.888754 0.168321
292 1 1.51883 8.55517 2.37779 2.8438 -2.02059 1.43908
293 1 2.45275 8.86851 2.4906 -2.28042 -1.0045 3.51755
294 1 3.05044 9.24213 1.81889 0.299605 0.294329 -1.29773
295 1 4.01766 9.05692 2.07862 0.341356 2.31993 -1.18301
296 1 5.31223 9.07892 1.63062 -1.74239 -0.216595 -3.88336
297 1 5.84735 9.13966 2.4304 -1.95905 0.611902 0.538667
298 1 7.38009 8.58711 2.66328 2.54134 -1.41013 -1.66102
299 1 8.23734 8.9699 2.59889 0.507852 -1.53824 0.130783
300 1 9.37461 9.01798 2.7126 -1.11305 -0.019746 1.85424
301 1 0.106336 0.239101 3.45194 -1.85669 -0.228556 1.06775
302 1 1.04332 0.559574 3.45768 2.09893 -0.355043 1.0367
303 1 2.10496 0.515185 2.69679 -1.87805 0.211584 0.727179
304 1 2.47959 0.107455 3.46544 0.194685 -0.621587 -3.43944
305 1 4.20994 0.476487 2.90115 -0.530474 0.15562 -0.289388
306 1 5.18545 0.64888 3.2704 -1.77566 0.319809 -3.08346
307 1 6.00618 0.107233 3.58139 0.711067 -1.6899 2.70617
308 1 6.62668 0.05345 2.8638 1.13904 -1.15336 -0.5914
309 1 8.21113 0.474914 2.46739 0.856925 -2.41665 1.64975
310 1 8.43907 0.235681 3.38935 0.889951 -0.968651 -3.25791
311 1 0.666361 1.47567 3.22077 -0.205861 0.415805 1.9574
312 1 1.53996 1.28492 2.84643 0.476171 2.1363 1.53527
313 1 2.59204 1.12001 3.63215 -0.944836 -1.19573 -1.32342
314 1 3.56033 1.02925 3.24765 -3.35464 0.702231 1.50272
315 1 4.42136 1.50651 3.15823 -0.284952 0.405426 -2.27155
316 1 5.41364 1.54862 2.98461 -2.50119 0.602997 -1.63552
317 1 5.95343 1.04353 3.62397 -2.91187 -1.65051 2.97414
318 1 7.13299 1.16784 3.26903 -0.640302 -0.389495 -0.471297
319 1 8.07084 1.30976 3.03375 -1.1638 1.01882 -3.56978
320 1 9.08164 1.36359 2.78243 -0.0202372 1.76253 -2.53295
321 1 0.217942 2.23585 2.82857 -0.152195 -1.79879 -0.813783
322 1 1.28046 2.26741 3.04938 1.28112 -0.353986 -1.26716
323 1 2.18307 2.11977 3.15577 2.28647 -2.28667 -1.86519
324 1 3.23791 2.00885 3.41911 -1.31769 -3.0257 1.2507
325 1 4.19028 2.26137 3.61485 0.506518 -1.11818 0.871647
326 1 5.21257 2.49187 3.73093 0.637327 -1.90427 1.57001
327 1 5.93709 1.95995 3.74246 -0.310914 1.09812 -0.350163
328 1 6.82228 2.30435 3.49976 -0.961716 0.951478 -2.64485
329 1 7.8957 2.65521 3.34005 2.62738 -4.43273 -0.500648
330 1 8.49168 2.2012 2.70283 1.32577 2.71742 -1.0847
331 1 0.391632 2.7816 3.61684 3.07106 1.32396 0.0456968
332 1 1.38499 3.24077 3.1636 -0.619844 -1.97838 -2.19287
333 1 2.14336 3.52632 3.52765 1.86494 -0.408374 -0.725995
334 1 2.79357 2.81121 3.26465 0.293887 0.595843 1.94335
335 1 4.45922 3.11252 3.88953 -2.72863 -2.77112 -3.19628
336 1 4.90585 3.52767 2.95919 1.53322 2.77933 -0.114154
337 1 6.08641 3.10238 3.18905 -1.08814 1.23036 0.457383
338 1 7.05088 3.28702 3.52807 0.251573 -2.36101 0.40459
339 1 7.56135 3.68829 2.76672 0.553224 1.16409 -0.715035
340 1 8.73831 3.32327 3.70839 0.570577 0.905196 0.622364
341 1 0.540286 3.69159 3.64743 -0.365948 -0.0289678 2.69509
342 1 1.41153 4.30581 3.44277 1.861 -1.2025 -0.498809
343 1 3.22235 4.0599 3.20117 1.53759 -0.889143 0.710835
344 1 3.81258 4.7289 3.38854 4.87922 0.47649 3.33707
345 1 4.75999 4.3877 3.64335 1.26881 1.71453 -4.58764
346 1 5.2635 4.3865 2.7797 -2.98126 1.52997 2.97569
347 1 6.62051 3.96981 2.96774 -1.34817 -2.71153 -1.54836
348 1 7.7015 4.4091 3.58251 2.00662 0.604065 1.27736
349 1 8.52757 4.52968 3.06996 2.20629 1.20951 1.58554
350 1 9.30017 4.12001 2.56974 -4.44005 -1.36212 -1.82576
351 1 0.255838 4.93079 3.64334 -2.27717 0.714203 0.562597
352 1 0.782692 5.47922 3.13175 0.959019 1.02543 -0.635909
353 1 1.95946 5.06331 2.9241 -1.15679 0.560716 0.223515
354 1 2.9493 5.04276 3.03717 1.35963 -1.53065 -1.13842
355 1 4.45628 5.656 3.34482 2.04906 -0.0333172 1.86791
356 1 5.30296 5.24815 3.39404 -0.941596 4.22376 -0.000278439
357 1 6.10862 4.76645 2.30705 -1.50198 -3.36953 -2.38208
358 1 6.61412 4.88744 3.20444 0.964975 -0.717247 -1.27375
359 1 7.81213 5.38951 3.20494 -0.113015 -0.813109 -0.27645
360 1 9.37802 5.0312 2.63428 0.388815 -1.22762 -2.0365
361 1 0.676689 6.33122 3.75642 1.31213 -2.77776 1.45181
362 1 1.58755 5.94298 3.01934 0.205938 0.00598176 0.969594
363 1 2.34089 5.71366 2.25278 0.900248 -3.97191 1.77085
364 1 3.57896 5.90361 3.29082 -1.18277 -1.19457 -1.37857
365 1 3.94335 7.36248 2.91958 -2.82122 2.11464 -0.368128
366 1 4.9394 6.51334 3.25564 -1.38702 2.67299 1.05314
367 1 6.11653 5.91391 3.16692 -1.36789 -0.0879117 0.962821
368 1 7.06604 5.87306 3.4662 -3.7852 2.02804 0.349942
369 1 8.26105 6.29392 3.46186 1.05897 1.97793 2.3487
370 1 8.80206 5.83622 2.68438 1.61631 3.57459 0.00639986
371 1 0.359567 7.35434 2.13747 0.524113 1.31106 -4.28884
372 1 0.928755 6.69132 2.89229 -1.67727 0.320409 -1.4334
373 1 2.09804 6.84309 2.71754 1.28551 -2.13611 -1.39117
374 1 2.97462 6.76556 3.58637 -1.00006 0.393202 -1.41861
375 1 3.93206 7.94956 2.17832 1.20065 -0.11235 0.024955
376 1 4.99511 7.18922 2.52233 -1.10599 -0.103571 -1.39637
377 1 5.84668 6.70194 3.66325 1.77575 1.17041 1.25098
378 1 7.48887 7.05608 3.71019 0.771174 -2.14194 1.8055
379 1 8.4456 7.17845 3.77732 0.867155 -0.413213 0.943986
380 1 9.19435 6.52487 3.57107 -0.566497 1.02601 -1.90413
381 1 0.429464 7.28433 3.43815 -1.76173 0.568553 -0.956396
382 1 1.39714 7.74464 3.22871 2.23778 -0.703516 -0.589704
383 1 2.50212 7.61497 3.70268 1.51642 -0.420309 0.92751
384 1 3.50487 8.14137 3.28978 -1.80025 0.417581 -0.776366
385 1 4.71639 8.26855 2.7788 -2.2042 -1.93245 -1.38254
386 1 5.42546 7.65847 3.35495 -0.253481 -0.258495 0.372266
387 1 6.45145 7.63133 3.65016 0.405212 -1.54016 0.409559
388 1 7.06347 7.73804 2.98662 -1.80591 0.611163 0.716636
389 1 7.91643 8.13035 3.28771 -0.845927 1.27736 1.78513
390 1 9.04849 7.71291 3.2735 -2.16014 1.08503 1.56902
391 1 0.783672 8.47243 3.58558 1.05108 -2.50978 -0.167978
392 1 1.61667 9.20386 3.74226 -0.957531 1.79941 -0.119768
393 1 2.46134 8.5571 3.49479 -0.250639 -1.10491 -1.66493
394 1 3.29024 8.96164 2.83984 0.306332 -0.445242 -0.161568
395 1 4.14708 8.83843 3.41612 -0.740814 -1.29602 -1.51578
396 1 4.847 9.25882 2.6084 0.155439 -1.2507 -1.8607
397 1 5.768 8.5517 3.1683 2.44779 -0.343881 -0.0595339
398 1 6.9019 8.78667 3.40806 -1.12089 0.778617 -0.023278
399 1 7.5516 0.133177 3.18472 -0.415044 3.57192 2.86
400 1 8.69152 8.67204 3.37983 -1.38447 -1.48915 -0.904816
401 1 9.36395 1.18522 3.93422 2.49045 1.65553 -1.3788
402 1 1.36267 0.330923 4.76017 0.564509 0.822246 -0.367262
403 1 1.7836 0.882414 4.05842 -3.5987 1.33346 0.167034
404 1 3.39693 0.79069 4.54386 1.70022 -2.68785 2.08554
405 1 4.2002 0.451695 3.85661 0.260793 1.8243 0.799358
406 1 5.12256 0.48077 4.29263 -0.817204 0.874162 0.456846
407 1 5.98646 0.0499403 4.60288 0.535749 -1.38738 -0.0606829
408 1 6.87329 0.277149 3.9764 -0.779023 1.08754 -3.3566
409 1 7.71421 0.725583 3.85831 -4.32466 -4.17905 -0.943219
410 1 9.07799 0.248778 4.3231 0.912904 1.96278 2.42978
411 1 0.317797 1.99168 4.2776 0.123136 -2.82704 -0.3815
412 1 0.831887 1.08096 4.30253 1.00157 -0.591675 1.58109
413 1 2.22815 1.59507 4.57326 -0.971779 -0.0709158 -1.90939
414 1 3.20556 1.76176 4.37123 1.9209 0.304479 -0.673962
415 1 4.17832 1.31702 4.23773 1.36626 -0.511102 -0.0501833
416 1 5.03162 1.48042 3.88365 1.36022 2.47901 -0.774618
417 1 5.7648 1.15692 4.63795 0.459755 1.17601 3.9239
418 1 6.72972 1.50766 4.08826 0.96714 1.02119 0.667138
419 1 7.58061 1.82171 3.90183 2.41402 -0.407529 -1.59623
420 1 8.50282 1.27153 4.08069 -0.156707 2.78526 0.196684
421 1 1.37431 2.72095 3.97811 1.15214 5.11054 -3.45676
422 1 1.37813 1.75762 3.92139 2.05434 -1.63788 4.01359
423 1 2.41798 2.39597 4.08175 -3.15666 -2.30567 1.6939
424 1 3.46847 2.75287 4.08173 2.05531 -0.112584 -3.12904
425 1 4.57647 2.29585 4.55582 -0.429528 0.405741 0.130133
426 1 5.62406 2.1196 4.64245 -1.6914 0.305233 -0.464363
427 1 6.16805 2.78471 4.0968 0.930915 0.15984 2.90114
428 1 7.04043 2.28485 4.60192 -3.59086 -3.10191 -4.25697
429 1 8.3082 2.5547 4.36582 1.06155 -0.17288 -1.85763
430 1 8.93252 2.11532 3.58981 3.38392 1.31133 1.31991
431 1 0.716908 3.46936 4.51232 -1.09938 -0.311683 -0.0252663
432 1 1.87182 2.92825 4.82107 -1.48422 -2.72929 1.03659
433 1 2.74381 3.56362 4.3218 -1.0414 0.0936535 0.641239
434 1 3.75676 3.83955 3.89671 -0.442652 0.793692 -0.796606
435 1 3.9911 3.06419 5.09621 0.412555 3.11494 -1.55713
436 1 5.20629 3.10146 4.67428 0.370041 -1.90731 -1.18626
437 1 5.44421 3.45835 3.86477 -0.392283 1.1962 0.384576
438 1 6.8841 3.40669 4.63513 0.554321 -0.370546 -0.138133
439 1 7.63211 3.44012 4.19847 -0.0148917 3.03719 2.8585
440 1 9.25881 3.00248 4.61915 -0.980313 -0.508719 -0.777587
441 1 0.779125 4.47545 4.3372 -2.90065 3.40122 1.73806
442 1 1.56637 3.82557 4.27709 2.669 -0.479086 0.199243
443 1 2.3495 4.52482 3.79182 0.299146 -3.59262 0.401331
444 1 2.84516 4.51564 4.73305 -2.96928 2.50222 -0.545853
445 1 4.59986 3.85787 4.70729 3.18589 1.9193 -1.12896
446 1 5.38839 4.46494 4.36303 -2.92367 -2.06184 -1.56451
447 1 5.85568 4.38358 3.60066 -2.98265 -1.01139 -0.717628
448 1 6.71523 4.11356 4.04364 -2.3839 -1.38048 -1.51218
449 1 7.84412 4.3787 4.55242 2.15832 0.581466 -1.65182
450 1 8.91538 4.24479 3.90162 -1.65616 -0.0581759 -2.75903
451 1 0.457089 5.6387 4.37302 1.67578 -0.818141 -1.04951
452 1 1.4375 5.277 3.86117 3.14559 2.00802 1.01661
453 1 2.26445 5.45239 4.20875 -0.996077 0.45025 -1.35608
454 1 3.15307 5.26958 3.95723 -0.568728 -0.742191 -2.13669
455 1 3.85384 4.69971 4.42432 -1.35086 1.57356 1.84844
456 1 4.60206 5.22736 4.27726 0.896786 1.65295 -0.501429
457 1 6.06578 5.02571 4.4176 0.79238 -4.28648 -1.45222
458 1 7.01447 5.18383 4.19183 1.34934 -0.368963 -0.318579
459 1 8.10587 5.25431 4.10468 0.887992 1.89368 1.6441
460 1 8.84332 5.40119 3.4726 0.002752 2.20885 -2.06256
461 1 0.716083 6.21254 5.32448 -0.0155714 0.354124 1.66575
462 1 1.52094 6.23133 4.15211 -3.106 1.77182 -1.75904
463 1 2.49683 5.97711 3.41443 -3.61499 -0.998409 -1.6003
464 1 3.37188 6.17406 4.31831 -1.84628 -0.297107 0.411191
465 1 4.07916 6.47661 3.83693 -0.0767602 2.27879 -0.829962
466 1 5.21991 6.08312 4.22344 1.5616 1.09104 -3.24569
467 1 6.27297 5.93606 4.10354 -1.08743 0.819213 -5.26835
468 1 7.42685 6.05692 4.43713 0.977612 0.973462 1.3229
469 1 8.36172 6.25388 4.40557 1.3422 1.93672 3.39359
470 1 9.32243 6.36112 4.62095 -1.15823 -1.50882 -0.753002
471 1 9.34426 7.34109 4.23189 1.1851 -1.79745 -2.3549
472 1 0.831614 6.86163 4.5329 1.12286 1.31664 -2.85751
473 1 1.78565 6.92776 3.64303 0.343428 -0.563319 0.162721
474 1 2.91453 7.3661 4.56838 1.32434 -0.150995 -1.16909
475 1 3.67591 7.43374 3.88616 -1.48709 -1.41138 -0.518138
476 1 4.7871 7.06058 4.23475 0.00936525 2.0322 -2.49008
477 1 5.88922 7.05675 4.62088 1.44164 2.44677 1.19318
478 1 6.79522 6.86683 4.42 1.6641 -0.165166 -3.0151
479 1 7.59623 7.43343 4.5514 1.10056 -1.38764 -0.837487
480 1 8.4241 7.11653 4.92579 0.239496 1.66968 2.77852
481 1 0.508428 8.05292 4.64263 1.7145 -1.2078 -0.518637
482 1 1.26898 7.82006 4.13004 0.273577 1.20507 -0.537339
483 1 2.19068 8.30456 4.61412 -2.11107 -4.13542 0.540716
484 1 3.08805 8.37663 4.11308 -1.31178 -0.112856 -0.313013
485 1 4.5076 7.87348 3.78183 -0.507936 -1.03886 0.699159
486 1 5.40534 7.84444 4.36701 -1.84388 -1.16638 1.22782
487 1 6.72421 7.90965 4.65565 -1.0656 0.343054 -1.23396
488 1 7.28341 8.18015 4.0465 0.69224 -0.197112 0.350009
489 1 8.36725 8.03284 4.24946 2.59381 0.723204 1.69126
490 1 8.94797 7.98397 4.96404 0.130749 -1.99555 2.48616
491 1 0.669838 0.110426 4.21215 0.818273 0.0156314 1.75182
492 1 1.32519 8.76088 4.64156 -1.91919 3.15479 -0.948356
493 1 2.57784 9.23326 4.38939 4.38069 0.846316 0.616863
494 1 3.34891 0.00552076 3.88494 3.07917 -1.35752 -2.72482
495 1 4.17886 8.47528 4.42948 0.733477 -1.94768 -3.41125
496 1 5.16208 9.0703 3.64564 -1.07022 -3.86829 1.07919
497 1 6.12329 8.52407 4.18356 -1.55589 2.97629 -1.95558
498 1 6.99319 9.00348 4.57595 -3.28198 1.63965 1.17532
499 1 8.05198 9.01111 4.11603 -3.03832 2.12568 -3.09063
500 1 9.23581 8.7797 4.13342 -0.881384 3.07467 0.250624
501 1 0.438496 0.502112 5.12916 -0.401911 2.35745 0.670108
502 1 1.25852 0.30136 5.79374 -3.65605 -2.12844 -0.580467
503 1 2.30403 0.574681 4.91779 -0.744034 -1.67535 0.518109
504 1 3.06828 0.112438 5.56842 -1.09374 -2.33024 0.816804
505 1 4.2683 0.397931 4.78396 2.42181 0.98125 -1.78513
506 1 5.17244 0.356704 5.20305 0.773261 4.04377 1.29652
507 1 6.12536 0.149309 5.66065 -1.90858 0.368581 -2.06455
508 1 6.89192 0.651221 4.96519 0.516534 -0.474244 -0.505528
509 1 8.21634 0.351246 4.80776 0.797775 -1.07817 -1.00311
510 1 8.83562 0.10783 5.60058 -0.319273 -0.131379 0.243791
511 1 0.407536 1.51068 5.27684 0.120771 -1.26607 0.684655
512 1 1.59217 1.11583 5.5846 0.928356 -1.71592 2.32096
513 1 2.24932 1.28124 6.3693 0.558245 -1.717 -0.502394
514 1 2.85433 1.11172 5.40939 0.344889 1.57114 1.12657
515 1 4.77586 1.62236 5.23468 -0.164007 -1.46451 0.790061
516 1 5.51343 1.25899 5.8276 -2.2106 0.496637 -0.302583
517 1 6.38394 1.3226 6.28067 -2.02656 0.453522 1.494