ITEM: TIMESTEP
50
ITEM: NUMBER OF ATOMS
1000
ITEM: BOX BOUNDS pp pp pp
0.0000000000000000e+00 9.4000000000000004e+00
0.0000000000000000e+00 9.4000000000000004e+00
0.0000000000000000e+00 9.4000000000000004e+00
ITEM: ATOMS id type x y z vx vy vz
1 1 0.604498 0.243332 0.226841 -0.462795 1.17796 -2.75473
2 1 1.69514 0.435448 0.299006 0.953426 -0.549574 0.00748653
3 1 2.5565 0.345473 9.30616 2.49149 1.56076 -2.68813
4 1 3.56311 0.440423 0.367836 2.29299 -1.0707 -1.22879
5 1 4.32069 0.56394 9.02678 -2.44591 -0.431656 -6.39294
6 1 5.01657 0.120922 0.133467 -4.16009 0.101163 -1.65521
7 1 6.18648 0.756353 0.508541 -1.84312 0.733629 -2.04456
8 1 7.17767 0.551148 -0.00752479 -0.310286 1.36851 -1.95512
9 1 8.04372 0.284336 0.0353012 -1.99023 0.877461 -3.25112
10 1 9.03334 0.611719 0.0679802 -4.37202 -1.1026 0.694253
11 1 0.473565 1.12319 0.46134 2.98494 -1.12845 2.28445
12 1 1.42354 1.45025 0.263825 0.889041 1.3016 0.00746864
13 1 2.42784 1.18732 0.289804 0.526809 3.21706 -0.738335
14 1 3.42155 1.55747 0.386822 -1.63804 1.18605 0.150129
15 1 4.41791 1.27201 0.339704 1.02853 -2.155 -1.30696
16 1 5.41431 1.05062 0.0158693 1.93769 -1.02403 -0.173014
17 1 6.03089 1.69804 0.237994 0.50871 0.952097 0.27669
18 1 6.88524 1.56119 0.473185 -2.33585 0.283098 2.32248
19 1 7.91165 1.23514 0.13892 0.175245 -1.45888 -0.86639
20 1 8.92387 1.71569 0.2988 1.57566 -0.574644 -1.20134
21 1 0.449546 2.06877 0.419396 0.652688 -2.5032 -0.936507
22 1 1.3457 2.47238 0.219513 -1.83258 0.897312 -0.851764
23 1 2.33604 2.18656 0.0921381 1.14326 0.538261 1.9953
24 1 3.18755 2.60684 0.3435 -1.56102 3.16899 1.19995
25 1 4.10739 2.21712 0.2394 -0.254731 -2.13762 -2.23597
26 1 5.05227 1.92255 0.178038 -3.76281 0.413997 -2.01125
27 1 6.12048 2.73512 -0.0708929 1.44537 -0.408359 -4.04191
28 1 7.12089 2.44977 0.381931 1.2106 0.636721 -2.68111
29 1 8.03718 2.23338 0.385284 -0.698131 2.67369 -1.90858
30 1 9.06671 2.64534 9.23745 2.33607 -1.25058 -3.6088
31 1 0.532877 3.05109 0.212778 -0.658879 -1.95846 -1.63183
32 1 1.41873 3.48032 0.11599 -2.49723 2.23726 -2.03427
33 1 2.19515 3.05041 0.511422 -3.13193 -3.97716 0.841714
34 1 3.33111 3.52023 9.31947 1.14393 2.85605 0.11457
35 1 4.24425 3.11441 0.432867 -1.76714 -1.89613 -2.57062
36 1 5.17703 2.77459 0.503671 -1.61927 -3.48469 0.608087
37 1 6.11729 3.64768 0.201609 0.923154 1.27912 -0.660708
38 1 7.02717 3.36298 0.165767 -1.37183 1.08448 0.98407
39 1 8.20648 3.15519 9.35021 -1.39605 -1.40788 1.26404
40 1 8.81873 3.49763 0.43315 -0.180397 0.20508 2.30241
41 1 0.185271 4.03202 0.181784 0.328501 -0.83643 -2.94613
42 1 1.08393 4.37185 0.373683 -0.614021 3.46733 0.309165
43 1 2.16138 4.0493 9.20143 0.647066 0.0103873 -2.47264
44 1 3.0432 4.43685 0.00109034 -0.650743 -0.388409 -2.48446
45 1 4.06052 4.18616 0.4845 -0.721188 0.0245597 1.53125
46 1 4.94053 3.76492 0.277415 0.465163 1.09895 3.06805
47 1 5.84929 4.56273 -0.0623764 -2.80844 2.8526 -4.01393
48 1 6.83407 4.36559 0.213692 1.35256 0.739947 -1.0482
49 1 7.77574 3.99405 0.123175 1.30055 -0.204666 -0.375893
50 1 8.65023 4.37116 0.201485 1.83335 1.66099 -0.463017
51 1 0.520631 5.05897 -0.0163469 0.342271 -0.0677592 -3.44499
52 1 1.54774 5.1422 9.26807 1.03327 -0.314306 -2.1349
53 1 2.36971 4.88645 0.691468 2.42293 -4.00146 2.18466
54 1 3.2101 5.31514 0.0715038 -1.02385 1.03265 -0.825627
55 1 4.14133 5.15331 0.08675 -2.41849 1.69484 -2.57831
56 1 4.98559 4.77324 0.335737 -1.79857 -2.11884 -1.87781
57 1 5.99366 5.61333 9.35231 -1.96036 2.60837 -2.05998
58 1 6.94276 5.32137 0.17513 -3.20218 0.390842 -0.471304
59 1 7.81965 4.90864 0.0590219 -4.40798 -1.35155 -3.77962
60 1 8.96066 5.38047 0.152373 -0.358754 1.39815 -1.05119
61 1 0.293665 6.14133 0.551376 -0.0597056 0.502917 -0.181554
62 1 1.20329 6.01813 0.36468 -2.70129 0.824387 -0.0907773
63 1 2.21561 5.89307 9.13259 -1.91559 -1.51879 -3.79038
64 1 3.17588 6.34537 0.305036 0.548833 0.562631 -0.45609
65 1 4.21382 6.09301 0.312883 -1.25735 0.140896 0.544167
66 1 5.12334 5.74441 0.471343 -2.41324 -1.17931 -1.59376
67 1 5.97493 6.47014 9.07553 -0.237688 0.871056 -0.610754
68 1 6.78932 6.24353 0.443254 -1.30608 -0.626238 -0.913771
69 1 7.86208 5.73725 0.43023 2.25101 -1.08648 0.634866
70 1 8.6259 6.27708 0.0687104 0.461223 0.735682 -3.48951
71 1 0.437127 7.03513 0.0309461 1.99511 -2.71854 0.732173
72 1 1.37279 6.92809 0.356719 -0.285291 -0.48551 -1.93824
73 1 2.36084 6.77515 0.119535 -0.358392 -2.50793 -2.12956
74 1 3.40773 7.28425 0.588662 2.27376 2.43332 1.92782
75 1 4.1032 7.02979 -0.00668614 -2.1081 -0.982958 -4.29396
76 1 4.91261 6.50772 9.30444 -2.78044 -2.62449 -2.98889
77 1 6.15129 7.37416 0.152213 0.128159 0.540919 -4.78016
78 1 7.02774 7.1526 0.247079 -0.920676 1.56462 -0.142968
79 1 7.83452 6.81828 0.226653 -2.86184 0.0664751 0.175442
80 1 8.86119 7.29753 0.453009 -1.1775 0.437358 1.82287
81 1 0.492427 7.88085 0.456422 0.391496 0.414253 -0.596032
82 1 1.49668 7.94756 0.137659 -0.489618 -1.17558 -1.54195
83 1 2.49384 7.80932 0.0523247 0.70711 -1.94534 1.1308
84 1 3.42348 8.03567 9.31156 1.91934 -0.872243 -2.0034
85 1 4.37642 7.91438 0.0601386 2.81708 -0.684141 1.67549
86 1 5.23635 7.55299 9.29326 0.0269056 -4.22071 -3.35774
87 1 6.01237 8.2419 0.591929 -1.53347 1.4921 0.358204
88 1 6.98135 8.08134 0.253002 -3.35031 -0.130573 -0.178655
89 1 8.06938 7.79707 9.318 -1.22938 -0.278169 -1.09954
90 1 9.00707 8.19059 0.250728 -0.50153 -0.101484 -1.59448
91 1 0.360437 8.76578 9.19636 2.335 0.29818 -1.75439
92 1 1.20535 8.88952 0.469972 0.822867 -0.541362 2.72309
93 1 2.15312 8.72225 0.185406 2.19121 -0.0339319 -0.901619
94 1 3.04426 8.85463 9.34259 0.35352 -0.571143 -2.40756
95 1 4.22818 8.95592 0.562982 0.557825 -0.876397 1.43218
96 1 5.14954 8.54111 0.144577 3.56685 0.501678 -1.71375
97 1 5.88103 9.19885 0.309355 -0.59075 1.06092 1.80606
98 1 6.82133 9.03644 0.252961 0.89178 0.172794 -0.897322
99 1 7.71965 8.71511 0.341543 1.8266 1.36586 -3.45072
100 1 8.80894 9.11104 0.456505 0.579568 3.67619 1.49991
101 1 0.673012 0.579115 1.35006 -0.453432 1.49513 -0.250368
102 1 1.5803 0.693119 1.15467 0.107275 1.92123 -2.81547
103 1 2.54378 0.401905 0.837737 -0.389981 -3.13066 -2.1165
104 1 3.36499 0.448638 1.32992 -0.836739 1.71647 1.82394
105 1 4.38211 0.450505 0.907969 -2.28894 2.19473 -0.317298
106 1 5.28193 0.576162 1.1027 1.20976 -0.614011 -1.14102
107 1 6.13467 0.395068 1.38733 -0.538195 0.645195 0.74157
108 1 6.96678 0.710833 0.986435 0.012566 1.37248 1.12062
109 1 8.09431 0.400404 0.910208 0.350037 2.12954 -1.2125
110 1 9.09059 0.536908 1.07578 0.9363 0.0558173 -1.10266
111 1 0.00620585 1.39937 1.25609 -1.48458 1.1 0.841096
112 1 0.960188 1.54313 1.26815 -1.79909 0.651969 -1.45072
113 1 1.92711 1.55634 1.19521 -2.22585 -0.50512 0.243912
114 1 2.89808 1.40626 1.26481 -1.79983 -0.064825 1.9946
115 1 3.97777 1.22 1.29565 0.627409 -0.07716 -2.19604
116 1 4.93809 1.48418 1.10023 -1.65105 -0.86208 -0.965355
117 1 5.98877 1.40914 1.17044 -0.216252 2.73167 -2.51569
118 1 6.85036 1.68608 1.45847 2.77258 3.20887 1.49777
119 1 7.59649 1.4453 1.05019 -2.04659 3.8547 -0.440974
120 1 8.50937 1.37891 1.26121 -1.35773 -2.26622 -0.237236
121 1 0.717534 2.43977 1.42631 1.40916 1.5807 0.264981
122 1 1.62824 2.52122 1.22849 0.323502 1.60258 -0.398797
123 1 2.589 2.27378 1.05242 0.701647 -2.93275 0.443686
124 1 3.50123 2.17824 1.32036 0.222008 -1.62185 -2.01885
125 1 4.47718 2.38685 1.11816 1.78533 2.08472 -0.478543
126 1 5.41019 2.27898 1.3344 1.40836 -2.65167 -2.09938
127 1 6.30725 2.40948 0.864228 -1.77132 2.02062 -3.09137
128 1 7.34275 2.49185 1.51846 0.207596 -1.61538 1.19427
129 1 8.18815 2.31626 1.27555 2.07942 -1.89968 -0.162134
130 1 9.12833 2.33341 0.900123 -0.784417 0.265827 -1.60231
131 1 0.0815285 3.11252 1.18358 0.205435 -2.41465 1.32096
132 1 0.985475 3.42459 1.00063 0.29862 2.13327 -0.374616
133 1 1.80616 3.37446 1.4949 -1.53588 1.53707 -0.52399
134 1 2.92553 3.31521 1.07511 0.934746 -2.16008 0.212386
135 1 3.83256 3.05777 1.29297 -1.11043 -0.130017 1.85971
136 1 4.81804 3.35343 1.21745 -0.00799689 0.00988454 1.36847
137 1 5.81581 3.28873 1.09785 -2.01345 1.96108 -0.419189
138 1 6.8116 3.21036 1.17082 2.0056 -1.33146 1.04553
139 1 7.79355 3.05536 0.76849 1.96547 0.501414 -2.81529
140 1 8.58731 3.10976 1.34005 1.45619 1.96492 0.315469
141 1 0.707673 4.22817 1.49589 1.27291 0.385251 -3.34125
142 1 1.62336 4.29975 1.05978 1.30934 0.537724 -1.8493
143 1 2.44798 3.95386 0.698653 -2.4723 -3.59345 -1.23683
144 1 3.39541 4.17249 1.20377 0.122259 -1.31783 -2.38841
145 1 4.27384 4.06398 1.69813 -2.37708 -1.72401 1.99893
146 1 5.30955 4.34368 1.10523 -1.20275 -0.619962 -0.178439
147 1 6.2673 4.07498 1.04153 2.84118 -1.01818 -0.921258
148 1 7.35214 4.40474 1.15909 -0.498229 0.878574 -1.27674
149 1 8.21934 4.0171 1.14195 -0.524674 -2.75287 -2.52774
150 1 9.2893 4.10664 1.06464 5.24396 -0.919026 -1.67751
151 1 0.68382 5.19621 0.934377 0.726839 0.343354 -1.25866
152 1 1.59037 5.38797 0.998352 0.997438 1.15757 0.768486
153 1 2.38986 5.23058 1.50408 -1.89461 1.97482 -1.25995
154 1 3.5057 5.23252 0.922821 2.04756 -0.141313 -1.97982
155 1 4.46362 4.82341 1.07332 1.3346 -1.63469 -2.01478
156 1 5.29216 5.36117 1.3263 0.0471141 -0.753469 -0.478802
157 1 6.27835 5.01755 0.982689 2.2069 1.75411 -6.15472
158 1 7.22494 5.38682 1.10238 -0.0230984 -0.943864 -1.2857
159 1 8.16357 5.02483 1.01682 1.67295 1.23325 -0.448505
160 1 9.16754 5.04743 1.16182 0.832044 1.61017 -1.45483
161 1 0.501529 6.2548 1.53128 0.424062 2.90013 1.26563
162 1 1.44768 6.37761 1.27304 -1.36148 0.924092 -2.29088
163 1 2.36333 5.94536 0.67047 0.665957 0.544945 -2.32503
164 1 3.27996 6.27492 1.42592 3.25214 1.99624 0.0711476
165 1 4.29237 5.90328 1.33441 0.985043 -1.61852 -0.552971
166 1 5.19791 6.30911 1.26362 -3.53218 0.653379 -1.16406
167 1 5.99699 6.0038 0.900901 0.870086 -1.52383 0.201096
168 1 7.05899 6.27082 1.3876 1.10258 0.934618 1.04628
169 1 8.02467 5.96015 1.25454 0.633246 1.70326 1.1685
170 1 8.88185 6.00539 0.985095 -1.26576 -1.82745 -0.642874
171 1 0.70379 7.11176 1.00539 -0.573495 -0.406545 0.917856
172 1 1.6519 7.24892 1.1727 2.5408 1.26842 -0.849179
173 1 2.58227 6.89852 1.04808 -1.49364 -0.652164 -3.14043
174 1 3.35224 7.29233 1.54164 0.526223 1.09743 2.08335
175 1 4.42791 6.96328 0.98874 1.358 -0.681457 -0.41083
176 1 5.40987 7.21029 0.908403 0.229209 -0.378639 -1.49545
177 1 6.36851 6.99399 1.00609 1.4166 0.576889 -1.85737
178 1 7.23449 7.23754 1.25531 2.42946 -0.478222 1.20104
179 1 8.22454 6.87182 1.18984 1.57933 0.685824 0.661559
180 1 9.18423 7.02507 1.33015 0.170732 -0.521318 -0.481664
181 1 0.267184 8.09779 1.43802 -2.87907 1.05761 -1.78613
182 1 1.13705 8.19919 1.10578 -0.578144 1.99873 -0.116055
183 1 2.0474 8.08466 0.915324 -2.92449 2.34448 -1.61849
184 1 2.96202 8.00651 0.969834 -1.8995 1.01928 -1.38609
185 1 3.94929 7.95249 0.941617 -2.00977 -1.71357 -2.33436
186 1 4.99198 8.15 1.05969 -1.80637 -1.56807 -0.804152
187 1 5.91421 7.84774 1.37524 0.751477 0.264701 0.832617
188 1 6.81529 8.30998 1.1702 -0.0440548 0.876451 -1.51682
189 1 7.77567 7.87099 0.813946 0.468845 0.0985988 -1.1386
190 1 8.66329 7.936 1.12629 0.0388072 -1.05206 -1.84444
191 1 0.254738 8.94288 0.855694 -1.14708 0.377945 -1.78497
192 1 1.50338 9.10826 1.39001 1.22712 2.2941 -1.25557
193 1 2.36243 8.95196 1.03688 0.789366 -0.839053 -0.853616
194 1 3.28238 8.89148 0.929879 0.662906 1.03952 -0.888686
195 1 4.26489 8.84498 1.44899 -0.946471 1.05093 -1.05544
196 1 5.05307 9.0763 0.980117 1.81668 0.955216 -0.47079
197 1 6.01162 8.90212 1.36286 -1.99288 2.16953 2.50808
198 1 7.12181 9.20492 1.179 1.4305 -0.169638 -0.886363
199 1 7.96948 8.8513 1.38922 -1.42084 2.62265 -0.660581
200 1 8.88897 8.87819 1.4171 -3.30886 -0.242421 1.10374
201 1 0.299084 0.668589 2.35599 -0.24032 1.33181 -0.387494
202 1 1.12916 0.210449 2.40714 -3.82089 -1.52416 1.3824
203 1 2.30276 0.604632 1.88769 3.44535 0.92742 -3.09405
204 1 3.06158 0.611546 2.39588 -2.89017 0.457789 -0.0068381
205 1 4.21053 0.430427 1.86377 0.0603085 0.755825 -1.7003
206 1 5.08728 0.407438 2.18172 1.5981 -0.859674 1.32294
207 1 5.97873 0.733469 2.59687 0.561948 -0.505799 -0.963814
208 1 7.1308 0.141083 2.04689 3.81136 -0.34046 1.59683
209 1 7.98093 0.747335 1.78696 0.596151 0.939676 -1.74617
210 1 8.76997 0.417983 2.28023 0.677824 -0.0281783 0.34117
211 1 0.711386 1.64093 2.22111 0.940995 0.550544 0.0506302
212 1 1.45923 1.04209 2.15123 -0.838867 -0.842385 -1.54211
213 1 2.48266 1.4765 2.40989 1.06799 1.00078 2.27336
214 1 3.41582 1.60436 2.14053 0.392168 -0.567291 3.37473
215 1 4.45692 1.28235 2.28039 -0.251212 0.0269668 0.120406
216 1 5.34003 1.34338 1.99498 2.96018 -0.745611 0.759771
217 1 6.3301 1.812 2.27264 1.03219 2.28519 1.40026
218 1 7.02017 1.06106 2.14098 -1.61676 -2.46693 1.57204
219 1 8.14524 1.69721 2.07825 1.60698 -1.85004 0.766829
220 1 9.07147 1.36021 2.16901 0.800948 0.716478 -0.247804
221 1 0.539004 2.64076 2.37375 -1.54027 3.13011 0.427773
222 1 1.69942 1.98137 2.10773 0.907902 -1.2575 -1.59796
223 1 2.70226 2.50253 1.94539 0.845997 1.90342 -2.32641
224 1 3.62081 2.55161 2.22594 1.11881 -0.642608 -1.96285
225 1 4.53036 2.16871 2.05751 0.37504 0.206336 -0.622641
226 1 5.53699 2.24716 2.339 3.1112 -0.701032 2.90871
227 1 6.25474 2.69006 1.7763 -1.45011 1.86651 0.810909
228 1 7.37062 2.08204 2.51594 2.76465 -0.743101 -0.912123
229 1 8.12371 2.65107 2.23426 -1.39983 -0.874065 -2.61322
230 1 9.14494 2.37478 1.96943 -4.10314 -0.570124 -0.0376828
231 1 0.393783 3.55442 2.03888 -0.346075 -0.877502 0.639728
232 1 1.47484 2.9688 2.28634 1.07027 -3.02761 0.833402
233 1 2.29681 3.36588 2.32993 -3.19315 -2.26112 -1.28552
234 1 3.25341 3.52502 1.95572 -0.678945 1.94557 2.60044
235 1 4.23311 3.30885 2.54068 1.65835 1.94326 1.06127
236 1 5.13661 3.14365 2.14378 -0.675494 -2.00717 -1.57135
237 1 6.17074 3.56196 2.14803 -0.220112 -1.2284 -2.21809
238 1 7.05995 2.92888 2.45031 -1.7617 -1.12366 3.97344
239 1 7.75821 3.39665 1.70285 -2.91115 -0.576541 -3.83285
240 1 8.9005 3.35302 2.33757 0.412979 -0.926434 0.624496
241 1 0.54089 4.49104 2.43514 0.984246 0.32465 -0.740931
242 1 1.48429 3.98702 2.28453 0.512632 -0.514153 0.379732
243 1 2.49026 4.11547 1.68652 3.65969 -1.87022 -0.30669
244 1 3.37472 4.51108 2.02934 1.70392 3.41139 0.803734
245 1 4.25402 4.26585 2.67559 2.58068 1.43598 2.84876
246 1 5.20149 4.08985 2.14475 0.225395 -0.989051 0.180686
247 1 6.0317 4.48212 1.9449 -1.63784 -1.18684 -1.87323
248 1 7.06469 3.95894 2.09099 -2.34914 0.387482 -1.82125
249 1 8.07461 4.46875 2.38303 0.509155 -1.25256 -2.64872
250 1 9.01504 4.21448 1.99034 0.0424909 2.09536 0.626231
251 1 0.291339 5.36489 1.91272 0.904521 -1.35879 -0.34008
252 1 1.24558 4.92415 1.72899 -0.0954934 1.18272 0.0930841
253 1 2.24577 4.99398 2.38497 -1.70818 -5.57691 -0.183302
254 1 3.17574 5.54874 1.94054 1.1875 3.46328 -0.0281884
255 1 4.03614 5.10668 2.04209 -2.08262 -0.53559 1.64136
256 1 5.08098 5.06883 2.14556 -1.67196 -1.73634 0.0452276
257 1 6.00377 5.40431 1.87468 1.04593 1.05901 -0.0689756
258 1 6.97617 4.87898 2.16567 -2.02814 -1.54603 -0.221788
259 1 7.72267 5.35451 1.97795 0.3627 -0.109324 -0.0750109
260 1 8.67328 5.1531 2.0143 -0.312342 0.735519 -2.08516
261 1 0.398443 6.15986 2.54211 -1.71541 -3.86405 0.778001
262 1 1.47868 5.85488 2.03922 0.23124 -1.54003 -2.30696
263 1 2.36202 6.1259 1.60012 0.598874 -1.67777 -1.24258
264 1 3.12087 6.27933 2.50318 0.687602 3.18198 0.0748439
265 1 4.12073 6.04363 2.33556 -0.0834576 -1.97015 0.496701
266 1 5.20877 6.0099 2.49621 0.724501 -0.569519 1.21225
267 1 6.018 6.37681 1.84376 -1.39425 4.59124 1.69756
268 1 7.00684 5.8479 2.59308 -0.649985 -0.0727481 -0.1193
269 1 7.87731 6.36409 2.07351 -2.61276 -0.817002 -2.82462
270 1 8.99802 6.13862 1.97889 -2.29138 1.42379 -1.43141
271 1 0.378932 7.15348 2.06851 3.25684 -1.71359 0.111234
272 1 1.33416 6.83606 2.26196 1.94768 0.664472 -0.853332
273 1 2.26999 7.10233 1.94717 1.78236 -0.54396 0.579646
274 1 3.21316 7.35151 2.51256 0.875601 2.41402 -0.16363
275 1 4.19814 6.96751 1.99437 -0.422244 -1.84192 -2.56119
276 1 5.11001 7.09018 1.88658 0.869745 1.76839 -0.310752
277 1 6.03567 7.25323 2.228 -1.8663 -0.41928 -0.852695
278 1 6.88166 6.79221 2.21539 0.0153291 -0.955446 3.30976
279 1 7.75238 7.27387 2.39992 -0.927511 0.307297 2.02016
280 1 8.73919 6.98991 2.48349 1.53448 -0.701744 2.14928
281 1 0.645079 7.99466 2.46273 -2.03186 -1.88748 3.09466
282 1 1.43247 7.80513 1.90624 1.82865 -0.464298 -1.19318
283 1 2.35175 8.026 2.28952 -0.760758 -0.704074 0.399054
284 1 3.37279 8.15575 1.89685 1.07786 3.06629 -1.29237
285 1 4.4323 8.04582 2.05264 1.47417 -1.30978 0.473595
286 1 5.35646 7.93373 2.11226 0.512127 2.61926 0.697475
287 1 6.25971 8.23168 2.43893 -0.73975 0.926087 -0.297371
288 1 6.83931 7.6789 1.95535 -1.51352 -0.468742 -2.54817
289 1 8.0851 8.05177 1.87936 -2.06084 -3.38421 -1.59126
290 1 8.98346 7.91051 2.25404 0.269615 -1.02796 1.9639
291 1 0.474461 8.99247 1.85866 -0.23865 -1.01231 1.26826
292 1 1.50427 8.66241 2.23448 1.54315 -2.30174 -1.06968
293 1 2.38146 9.0697 2.06403 0.739993 -0.47428 -0.521151
294 1 3.32137 9.11002 1.88823 -0.476063 1.33228 0.493179
295 1 4.22187 9.20251 2.49096 1.32749 -0.93005 -2.83532
296 1 5.15791 8.85825 1.8345 0.463448 -1.27967 -0.0473164
297 1 6.00327 9.20693 2.22084 -1.16817 0.69208 2.52343
298 1 7.17476 8.64508 2.31366 2.54157 -0.993097 -0.891843
299 1 8.00466 9.15107 2.46703 -1.35657 -1.68388 0.0735262
300 1 9.04183 8.86644 2.33235 -1.21752 0.758626 1.71256
301 1 0.412555 0.361211 3.25934 -1.86261 0.195435 0.337795
302 1 1.40967 0.680675 3.41783 1.14104 0.504834 -0.288585
303 1 2.08072 0.299926 2.77983 -0.0866373 -0.041182 -2.72647
304 1 2.98419 0.330844 3.46682 -3.12607 -0.204751 -0.290244
305 1 3.92771 0.600217 2.88022 -1.71566 1.55008 1.66368
306 1 4.82266 0.373337 3.25641 -0.516095 -0.0548416 -0.621107
307 1 5.91551 0.241196 3.6412 0.298785 1.66717 -0.45335
308 1 6.76153 0.334451 2.93963 -0.707123 -1.65147 -1.36158
309 1 7.83799 0.660477 2.84501 -1.03691 -0.158681 -3.09711
310 1 8.81908 0.421766 3.50447 0.641652 -1.37288 0.725548
311 1 0.644474 1.24564 3.17477 1.05985 1.14274 -0.0659928
312 1 1.59261 1.59627 2.95758 2.02315 -0.492622 -2.07957
313 1 2.45723 1.3572 3.47643 -1.79872 2.57221 -0.190514
314 1 3.40145 1.24062 3.29541 0.0457923 -1.01201 0.433225
315 1 4.38927 1.47921 3.24001 -0.257864 -0.659708 -0.147531
316 1 5.23602 1.22483 2.90899 -3.22867 -1.50692 -0.818775
317 1 6.27644 1.15448 3.46435 -1.92939 -1.9587 0.449412
318 1 7.18261 1.30932 3.12567 -2.03928 -2.61042 2.03253
319 1 8.16506 1.46987 3.16698 1.20895 -0.921581 0.546597
320 1 9.09122 1.26201 3.2227 -1.4583 -2.15773 -0.35585
321 1 0.177748 2.1889 3.18176 1.37494 -0.0166774 -0.287299
322 1 1.10643 2.50378 3.08458 -0.286432 -2.29356 -3.13893
323 1 1.99615 2.45658 3.21923 1.36142 2.43843 -0.77166
324 1 2.9872 2.13735 3.17241 0.466887 -0.656209 -0.812383
325 1 3.9141 2.54726 3.26608 1.34819 -1.20072 2.0052
326 1 5.00029 2.26886 3.42055 0.392498 0.586701 -0.606599
327 1 5.82913 1.94876 3.18227 0.437037 -1.75698 2.49482
328 1 6.72762 2.28714 3.10521 -0.183313 0.152144 -2.08929
329 1 7.61111 2.5311 3.50122 1.49444 -1.96811 0.0947086
330 1 8.58003 2.35546 3.08939 -0.538544 -0.0749072 -0.359166
331 1 0.295626 3.1362 3.23512 1.44973 -1.78599 -0.990757
332 1 1.35111 3.47448 3.35554 -0.320709 1.18724 0.201311
333 1 2.34052 3.3158 3.5348 2.79803 -0.365613 1.138
334 1 3.16909 3.2309 2.82891 0.635882 0.521038 0.409702
335 1 4.19879 3.49305 3.75526 -0.0255584 -0.513068 3.2385
336 1 5.0428 3.26909 3.26216 0.376864 1.56399 -1.82615
337 1 5.9241 2.9943 3.1757 1.87008 -2.00241 -1.51688
338 1 6.97027 3.23845 3.5096 -1.82135 0.303687 0.428791
339 1 7.82161 3.50355 2.76302 1.85987 -0.241402 0.363471
340 1 8.70857 3.23728 3.30169 -1.29402 2.07591 1.23807
341 1 0.837631 4.40235 3.53249 -3.16067 -1.02368 -0.667546
342 1 1.87061 4.42925 3.07955 -0.284825 -0.996618 -2.63944
343 1 2.69702 4.1557 2.77375 2.40209 0.788109 -0.226083
344 1 3.53476 4.28031 3.31408 -1.26116 2.14626 2.40716
345 1 4.59619 4.38862 3.56646 -0.416981 0.291416 1.42616
346 1 5.58591 3.99074 3.14884 1.55099 -0.86719 -1.18212
347 1 6.63109 4.02899 2.90268 2.83021 0.661516 -1.00806
348 1 7.50655 4.30518 3.22246 0.512423 2.80805 2.97947
349 1 8.46916 4.22738 3.51362 1.00105 0.758276 -1.13201
350 1 9.39384 4.03086 3.06017 0.518407 -0.914466 -1.48784
351 1 0.540887 5.28777 3.04681 -1.19666 3.75802 1.02631
352 1 1.47488 5.31799 2.96338 -0.327606 1.10028 0.10863
353 1 2.24369 5.23629 3.59101 -1.97762 -2.08182 0.785017
354 1 3.09863 5.04972 2.83687 -0.180073 2.35931 -0.0494987
355 1 4.12027 5.37465 3.10978 0.970853 -0.807343 -1.54558
356 1 5.16806 5.17603 3.09326 0.0279901 0.33953 -2.15778
357 1 6.08013 4.89439 3.20594 0.290189 0.559151 -2.3068
358 1 7.0126 5.10873 3.19517 -0.835533 -1.55076 0.321502
359 1 7.98142 5.2083 3.06961 -0.0254951 1.76809 0.092147
360 1 8.97632 4.9294 2.96731 0.906241 -2.49694 -2.72422
361 1 0.352905 6.13099 3.50141 -0.865164 3.81617 -0.840672
362 1 1.44237 6.34061 3.35198 0.736457 -1.3703 1.07781
363 1 2.31778 5.89133 2.95828 -1.71531 -0.435859 -2.83675
364 1 3.42962 5.98543 3.39702 0.230272 -0.222404 -0.0389221
365 1 4.36507 6.47706 3.14008 -2.22821 1.98184 -1.37973
366 1 5.1731 5.96229 3.61878 -1.72944 1.195 1.2232
367 1 6.09638 5.84845 2.84038 -2.00511 -2.54353 1.13502
368 1 7.06395 5.95669 3.71845 0.439941 -2.57106 1.54149
369 1 7.77709 6.18437 3.03022 0.678989 1.28302 -2.11332
370 1 8.763 5.97932 2.95214 -1.01691 -1.3995 -2.75431
371 1 0.664778 7.0001 3.05255 -1.21366 2.23434 -0.03507
372 1 1.5135 7.27836 3.21663 0.374404 0.0181191 -3.19941
373 1 2.33558 6.80756 2.86462 -3.17929 1.09778 -0.641071
374 1 3.23448 6.86883 3.53877 -3.79327 0.689071 0.313791
375 1 4.17291 7.40449 2.83616 -0.308767 0.858208 -0.399535
376 1 5.20513 6.87265 2.92025 2.72574 0.671009 -3.14076
377 1 6.20829 6.85972 3.01733 1.51669 0.133891 2.96587
378 1 7.18209 6.94221 3.1051 1.1817 -0.608404 -0.360879
379 1 8.15219 7.20738 3.42722 1.14976 0.812778 1.22664
380 1 9.14782 6.80394 3.46897 0.755076 -1.45613 1.24589
381 1 0.655675 7.92188 3.46126 0.601677 1.46421 -2.44734
382 1 1.52461 8.27163 3.17533 0.464003 1.60525 -0.275593
383 1 2.50614 7.71005 3.38116 1.56846 -0.855285 0.745837
384 1 3.40966 7.89874 3.2269 2.65224 1.86342 1.72471
385 1 4.37866 8.22909 3.06857 1.78459 0.803813 -1.97828
386 1 5.40682 7.85631 3.09478 -0.386523 -1.18485 -1.52958
387 1 6.2636 7.8484 3.50851 0.921244 -0.0933848 -0.752333
388 1 7.0895 7.99743 2.97689 0.0904806 -0.363824 -0.447675
389 1 8.17728 8.27761 2.87305 0.944087 1.98203 0.0315802
390 1 8.97633 7.81239 3.38568 0.3585 -0.997907 0.718697
391 1 0.425338 8.84523 2.9022 1.98078 -1.24868 -0.0369185
392 1 1.5448 9.11504 3.50409 3.22057 -1.91631 -0.226964
393 1 2.37449 8.66485 3.01388 1.60115 0.120023 -0.937009
394 1 3.30851 8.87349 2.81177 -1.8031 -0.905538 -1.96346
395 1 4.24726 8.97674 3.62332 0.969797 0.77092 -1.63099
396 1 5.11079 8.8592 2.80444 -0.57929 -0.231863 -2.33341
397 1 5.93698 8.77212 3.26673 -0.75312 -0.312052 1.48135
398 1 6.8939 8.81057 3.66407 -0.477584 -2.7045 -0.152905
399 1 7.87575 9.10833 3.59627 -0.878765 0.474595 0.197944
400 1 8.82422 8.8512 3.25638 -0.877053 -0.177099 0.450849
401 1 0.304668 0.782914 4.165 -2.15429 0.481571 -0.909584
402 1 1.45755 0.255425 4.73381 2.33875 -0.90891 1.94505
403 1 2.23643 0.653615 4.08835 -1.83566 -0.15695 1.26036
404 1 3.34834 0.594272 4.55596 -0.403264 0.539097 2.56878
405 1 4.32465 0.435521 4.06321 -0.421217 -0.505897 0.411108
406 1 5.25805 0.49167 4.35135 -0.1349 0.24369 2.55352
407 1 6.15751 0.462623 4.8338 -1.10085 -0.938528 2.13081
408 1 7.0007 0.26612 3.98672 -0.669472 0.726667 -2.17989
409 1 8.02847 0.590713 3.96575 -1.53662 2.67206 0.283543
410 1 8.83672 0.33072 4.72895 -0.265246 -1.84209 0.30884
411 1 0.455747 1.74542 4.22165 0.581116 1.04169 -1.52879
412 1 1.19811 1.20728 4.28726 -0.0513082 -2.32077 1.04155
413 1 2.25171 1.56246 4.64379 -0.261747 0.0292152 1.012
414 1 3.10871 1.67919 4.49166 0.818878 2.23679 1.01807
415 1 3.95437 1.41451 4.27236 -1.64909 1.6221 0.138066
416 1 4.98917 1.40567 3.94385 0.423616 -1.54413 -1.4724
417 1 5.96198 1.47721 4.42896 0.823832 -0.232375 -3.00268
418 1 6.89084 1.18669 4.16242 1.37738 -1.81559 2.80363
419 1 7.88956 1.54633 4.25322 1.59611 -0.768918 -0.182979
420 1 8.83396 1.30649 4.29963 -1.14569 -1.066 0.00710002
421 1 0.782574 2.78253 4.06621 0.64237 2.61529 1.78173
422 1 1.60456 2.10468 4.1028 0.0757952 -1.04456 -1.55026
423 1 2.58042 2.47207 4.22443 0.990501 0.31945 -0.958302
424 1 3.55539 2.60273 4.0842 -0.0644485 2.48356 0.384572
425 1 4.4566 2.24872 4.25699 1.21397 0.456208 2.5929
426 1 5.43266 2.27592 4.51563 -0.00948822 -1.85033 3.10773
427 1 6.30786 2.45761 4.06414 1.71652 1.23286 0.440867
428 1 7.19117 2.15138 4.32936 -1.50184 0.13022 0.402533
429 1 8.22438 2.60177 4.5957 1.26161 1.19434 1.67
430 1 9.08439 2.3507 4.11238 -3.30598 1.06398 -4.22947
431 1 0.614783 3.62397 4.50838 0.336643 2.74501 2.92141
432 1 1.61029 2.9578 4.63327 1.8198 -2.47166 1.66776
433 1 2.44605 3.37032 4.49665 -1.16648 -1.43922 2.02196
434 1 3.20927 3.56367 3.86272 -1.37678 0.355965 -2.57452
435 1 4.26159 3.11943 4.78642 1.29026 -0.880829 0.939331
436 1 5.23619 3.32675 4.55728 -1.76056 0.351481 1.54666
437 1 6.19252 3.46836 4.14003 -2.27498 0.111085 -0.517631
438 1 7.12223 3.08395 4.46314 -0.298434 0.295386 -0.430591
439 1 7.83472 3.45136 3.87927 -1.72327 2.30204 0.940376
440 1 8.95265 3.28408 4.37403 -0.61159 -0.934593 -0.359182
441 1 0.579208 4.63191 4.44853 2.742 0.430197 1.40033
442 1 1.47007 4.06699 4.4138 -0.811512 -1.87343 -0.396484
443 1 2.52532 4.11439 3.84805 0.826134 3.25631 -1.05765
444 1 3.22179 4.42131 4.57238 0.632598 -1.7115 2.11437
445 1 4.18142 4.06237 4.47654 -1.24 -1.0012 0.852087
446 1 5.19723 4.25649 4.2694 0.933198 0.799371 1.51175
447 1 6.15072 4.37114 4.01616 0.886026 0.0197191 -0.761379
448 1 7.09216 4.02337 4.07396 0.897271 -0.669663 -1.64859
449 1 7.90695 4.33744 4.65087 -0.530935 2.87511 1.4814
450 1 8.99339 4.20638 4.29843 1.93786 -2.51785 0.27217
451 1 0.509542 5.49562 4.21492 0.257735 3.75098 2.53168
452 1 1.35851 4.99778 3.8763 0.638837 2.28841 2.85138
453 1 2.48592 5.02043 4.53484 -0.588891 -0.161105 -3.1872
454 1 3.20498 5.20351 3.97562 3.67067 -0.991984 -0.241478
455 1 4.03827 5.13623 4.46203 0.549167 -0.839823 0.424151
456 1 4.89025 5.27234 4.15144 -2.45885 0.680304 0.0550103
457 1 5.86321 5.33578 4.2289 -2.14288 1.63628 -1.24542
458 1 6.85772 5.01487 4.31152 -1.62472 0.918933 -0.765604
459 1 7.8677 5.2637 4.2602 -0.624567 1.12085 0.0623521
460 1 8.86646 5.1924 3.898 -0.26682 -0.0549812 -3.4293
461 1 0.407802 6.3202 4.78584 -1.10295 -2.21123 2.40918
462 1 1.40272 5.85862 4.35958 1.04857 -0.865764 0.494643
463 1 2.43952 6.12144 3.91252 2.19165 2.07355 -0.710325
464 1 3.4348 6.2007 4.56788 4.44511 1.46552 -0.21493
465 1 4.25796 6.02328 4.00576 -1.55191 -2.60857 -2.26838
466 1 5.28232 6.15373 4.73137 1.75313 1.97381 -1.31367
467 1 6.10086 6.25397 3.90174 -0.758802 -1.60419 0.808392
468 1 7.13294 6.00368 4.65498 1.86866 0.055652 -1.62103
469 1 7.82264 6.38908 4.01709 0.847484 3.92157 -1.7885
470 1 8.92415 6.15783 4.15984 0.291206 0.104184 -0.266555
471 1 0.216325 7.35818 4.16349 -1.67132 0.175639 0.879362
472 1 1.18834 6.88394 4.54859 0.240859 0.43172 2.27658
473 1 2.15082 7.0122 4.01514 -0.910626 -2.12893 1.35262
474 1 2.96561 7.1584 4.62179 -0.358138 1.112 2.93759
475 1 3.97129 7.2103 4.14919 -0.623849 2.17405 1.68947
476 1 4.85834 6.82875 4.12695 -1.13844 0.159869 -1.08099
477 1 5.78979 7.08509 4.1953 -2.11687 -0.368695 1.78841
478 1 6.7512 6.83994 4.25128 -1.63999 -0.232453 -0.0689534
479 1 7.61895 7.30998 4.54888 -3.45384 0.577993 0.457539
480 1 8.64677 7.01961 4.6146 -2.21902 -0.608243 2.63441
481 1 0.467099 8.30109 4.38738 -0.965444 -1.39004 -0.847623
482 1 1.41595 7.8434 4.06007 0.309755 -0.902907 1.42914
483 1 2.34372 8.05111 4.55359 -0.201 -0.0249561 1.7897
484 1 3.42261 8.13308 4.54607 0.736566 0.764412 1.86512
485 1 4.38414 8.18225 4.12655 1.0147 -0.221267 -0.373661
486 1 5.34099 7.92162 4.17778 1.41565 1.32594 0.490684
487 1 6.43656 7.9194 4.77621 1.46744 -0.66818 0.606292
488 1 7.12621 7.91607 4.07311 3.4465 -0.355674 -0.930051
489 1 7.99734 8.10951 3.80506 2.56189 0.85616 -2.79091
490 1 8.96669 8.00864 4.46548 1.08149 0.932218 0.0706168
491 1 0.668012 9.21209 4.02395 0.221595 0.390742 0.267266
492 1 1.26366 8.62008 4.65613 -0.750423 -0.39782 1.17881
493 1 2.2984 9.03704 4.02978 0.491538 0.0811232 -0.524805
494 1 3.33825 9.01782 3.98684 -2.32624 -1.60151 -0.139445
495 1 4.01578 8.96592 4.65448 -1.94602 -0.310847 -0.794499
496 1 5.16969 8.87271 4.01629 1.15945 0.0225441 -0.754501
497 1 6.16454 8.87584 4.27491 -0.153278 -1.87444 3.46762
498 1 7.11833 8.97763 4.6765 -0.142763 1.4168 0.939967
499 1 8.08678 9.03438 4.54408 -1.21198 1.17512 0.418619
500 1 9.13554 8.97489 4.1732 -1.44674 2.46789 -0.460156
501 1 0.50481 0.436744 5.08363 -1.55349 -0.102853 -1.89564
502 1 1.30915 0.480046 5.62075 -2.77237 -1.0216 1.04344
503 1 2.37766 0.402377 5.07831 0.934475 2.96209 -2.40176
504 1 3.2847 0.449127 5.56417 -1.75212 -0.466253 1.03181
505 1 4.26461 0.528998 5.06463 0.77213 1.65159 0.241496
506 1 5.27053 0.419464 5.31572 -2.33702 0.511783 -0.398662
507 1 5.98151 0.165695 5.79187 -2.33526 -2.3848 2.83325
508 1 7.08719 0.618325 5.15423 3.2592 -0.0197431 -0.0245989
509 1 8.04487 0.527675 5.23506 0.819472 0.579918 0.370826
510 1 8.86331 0.106656 5.67155 -2.19855 0.132259 2.4503
511 1 0.57736 1.47414 5.47615 -1.78136 1.44324 1.26006
512 1 1.49467 1.36831 5.21716 -0.367138 -0.81779 1.11614
513 1 2.42253 1.1271 5.70653 -1.42825 -2.9962 2.03487
514 1 3.25735 1.54572 5.45812 -1.4002 0.915232 -1.75747
515 1 4.44941 1.48638 5.15516 0.72014 1.04193 -0.699203