LAMMPS (17 Apr 2024)
OMP_NUM_THREADS environment is not set. Defaulting to 1 thread. (src/comm.cpp:98)
  using 1 OpenMP thread(s) per MPI task
Loaded 1 plugins from C:\Users\emanu\AppData\Local\LAMMPS 64-bit 17Apr2024\plugins
#KALJ NVE, determine msd (linear in time, here every time step)

atom_style atomic
boundary p p p #periodic boundary cond. in each direction

# read data file (incl.mass info)
read_data configurazione_iniziale_Python_NVE_T05eq.data
Reading data file ...
  orthogonal box = (0 0 0) to (9.4 9.4 9.4)
  1 by 1 by 1 MPI processor grid
  reading atoms ...
  1000 atoms
  reading velocities ...
  1000 velocities
  read_data CPU = 0.026 seconds

# Define interaction potential.
pair_style lj/cut 2.5
pair_coeff 1 1 1.0 1.0 2.5 # type type eps sigma rcut
pair_coeff 1 2 1.5 0.80 2.0 #typeA typeB epsAB sigmaAB rcutAB=2.5*0.8=2.0
pair_coeff 2 2 0.5 0.88 2.2 #typeB typeB epsBB sigmaBB rcutBB=2.5*0.88=2.2

timestep 0.005 #Delta t
neighbor 0.3 bin
neigh_modify every 1 delay 0 check yes          # Update neighbor

thermo_style custom step temp pe ke etotal
thermo 2 #print every 2 MDsteps

group A type 1
800 atoms in group A
group B type 2
200 atoms in group B

compute msdA A msd                                      #default com=no and average=no so rvec(t=0) used
fix msdAfix A ave/time 1 1 1 c_msdA[4] file msdA.data
compute msdB B msd                                      #default com=no and average=no so rvec(t=0) used
fix msdBfix B ave/time 1 1 1 c_msdB[4] file msdB.data

# set numerical integrator
fix nve1 all nve # NVE; default is velocity verlet

run 1000
Generated 0 of 1 mixed pair_coeff terms from geometric mixing rule
Neighbor list info ...
  update: every = 1 steps, delay = 0 steps, check = yes
  max neighbors/atom: 2000, page size: 100000
  master list distance cutoff = 2.8
  ghost atom cutoff = 2.8
  binsize = 1.4, bins = 7 7 7
  1 neighbor lists, perpetual/occasional/extra = 1 0 0
  (1) pair lj/cut, perpetual
      attributes: half, newton on
      pair build: half/bin/atomonly/newton
      stencil: half/bin/3d
      bin: standard
Per MPI rank memory allocation (min/avg/max) = 3.934 | 3.934 | 3.934 Mbytes
   Step          Temp          PotEng         KinEng         TotEng    
         0   0.5005005      1.0571021      0.75           1.8071021    
         2   0.46054263     1.1190435      0.69012313     1.8091667    
         4   0.41588023     1.1893772      0.62319653     1.8125737    
         6   0.48858881     1.0797797      0.73215034     1.8119301    
         8   0.65825509     0.8208643      0.98639525     1.8072596    
        10   0.79151736     0.61653246     1.1860888      1.8026212    
        12   0.83284779     0.55139698     1.2480224      1.7994194    
        14   0.85654382     0.51329093     1.2835309      1.7968218    
        16   0.95551415     0.36024404     1.431838       1.792082     
        18   1.1357263      0.084222904    1.7018858      1.7861087    
        20   1.33937       -0.22405754     2.0070459      1.7829883    
        22   1.5254902     -0.50392798     2.285947       1.7820191    
        24   1.6990569     -0.7642501      2.5460367      1.7817866    
        26   1.9035791     -1.0689906      2.8525133      1.7835227    
        28   2.183501      -1.4870237      3.2719763      1.7849526    
        30   2.5087515     -1.9760556      3.7593642      1.7833086    
        32   2.7857445     -2.3910229      4.1744382      1.7834153    
        34   2.9466242     -2.6313761      4.4155163      1.7841402    
        36   2.9737198     -2.6696851      4.4561192      1.7864341    
        38   2.9215102     -2.5882354      4.3778831      1.7896477    
        40   2.8762284     -2.5168267      4.3100282      1.7932016    
        42   2.8726147     -2.5117026      4.3046131      1.7929105    
        44   2.877372      -2.5192061      4.3117419      1.7925358    
        46   2.891363      -2.5394018      4.3327074      1.7933057    
        48   2.9307758     -2.6003433      4.3917675      1.7914243    
        50   2.9541186     -2.6347114      4.4267467      1.7920352    
        52   2.9658421     -2.6516647      4.4443143      1.7926497    
        54   2.9735978     -2.6641029      4.4559363      1.7918334    
        56   2.9615037     -2.6455956      4.4378132      1.7922176    
        58   2.9566524     -2.6392256      4.4305436      1.791318     
        60   2.9634217     -2.6472107      4.4406874      1.7934767    
        62   3.0273682     -2.7454722      4.5365112      1.791039     
        64   3.0788754     -2.8246493      4.6136948      1.7890454    
        66   3.0832555     -2.8313307      4.6202584      1.7889277    
        68   3.0723523     -2.8133508      4.60392        1.7905692    
        70   3.0841179     -2.8307569      4.6215507      1.7907938    
        72   3.1215709     -2.8905455      4.677674       1.7871285    
        74   3.0969313     -2.8503833      4.6407515      1.7903682    
        76   3.1041786     -2.8649085      4.6516116      1.7867031    
        78   3.0870256     -2.8390161      4.6259078      1.7868916    
        80   3.0767811     -2.8213469      4.6105565      1.7892095    
        82   3.1534543     -2.9400917      4.7254513      1.7853597    
        84   3.1925597     -2.9997664      4.7840508      1.7842844    
        86   3.1600596     -2.9485384      4.7353493      1.7868109    
        88   3.1118857     -2.8774438      4.6631607      1.7857169    
        90   3.0753651     -2.8190594      4.6084346      1.7893751    
        92   3.1099837     -2.8743238      4.6603106      1.7859868    
        94   3.1060379     -2.8686453      4.6543978      1.7857525    
        96   3.0776768     -2.8240938      4.6118987      1.787805     
        98   3.1041617     -2.8632033      4.6515863      1.788383     
       100   3.1628224     -2.9527403      4.7394894      1.786749     
       102   3.2038776     -3.0127852      4.8010106      1.7882254    
       104   3.2371691     -3.0633434      4.8508979      1.7875544    
       106   3.2371306     -3.0636224      4.8508403      1.7872178    
       108   3.1878877     -2.989587       4.7770498      1.7874628    
       110   3.110651      -2.8725323      4.6613106      1.7887783    
       112   3.0658245     -2.8036863      4.594138       1.7904517    
       114   3.1034172     -2.8593328      4.6504706      1.7911378    
       116   3.1988085     -3.0073766      4.7934145      1.7860379    
       118   3.1972957     -3.0041028      4.7911477      1.7870449    
       120   3.1294257     -2.8979463      4.6894444      1.7914981    
       122   3.1357799     -2.910183       4.6989662      1.7887832    
       124   3.1473583     -2.9270789      4.7163165      1.7892376    
       126   3.1441997     -2.9233393      4.7115833      1.788244     
       128   3.1266959     -2.8977827      4.6853537      1.787571     
       130   3.0960443     -2.8507444      4.6394224      1.7886779    
       132   3.0983658     -2.8532272      4.6429011      1.789674     
       134   3.1429814     -2.9216504      4.7097577      1.7881073    
       136   3.1747052     -2.9704926      4.7572958      1.7868032    
       138   3.1980722     -3.0046129      4.7923111      1.7876982    
       140   3.2537265     -3.0901749      4.8757092      1.7855343    
       142   3.2733607     -3.1198816      4.905131       1.7852494    
       144   3.2389441     -3.0649582      4.8535578      1.7885996    
       146   3.2446787     -3.0741237      4.8621511      1.7880274    
       148   3.2771313     -3.1257103      4.9107812      1.7850709    
       150   3.2456544     -3.0764858      4.8636131      1.7871273    
       152   3.2152916     -3.0323073      4.8181144      1.7858071    
       154   3.1882095     -2.9904545      4.7775319      1.7870774    
       156   3.1932983     -2.9991987      4.7851575      1.7859588    
       158   3.2234813     -3.0458559      4.8303868      1.7845309    
       160   3.2436217     -3.0762541      4.8605672      1.7843131    
       162   3.2508348     -3.0871771      4.8713759      1.7841988    
       164   3.2809728     -3.1338304      4.9165377      1.7827073    
       166   3.2989544     -3.1624197      4.9434831      1.7810634    
       168   3.2453113     -3.0804479      4.863099       1.7826511    
       170   3.1698777     -2.9646135      4.7500618      1.7854483    
       172   3.1812117     -2.9832449      4.7670457      1.7838008    
       174   3.2183051     -3.0412413      4.8226302      1.7813889    
       176   3.2012567     -3.012643       4.7970832      1.7844403    
       178   3.2237726     -3.0464298      4.8308233      1.7843934    
       180   3.3048077     -3.1702069      4.9522544      1.7820475    
       182   3.3721856     -3.271397       5.0532201      1.7818231    
       184   3.4035663     -3.3210232      5.1002441      1.7792209    
       186   3.3375067     -3.2203341      5.0012538      1.7809197    
       188   3.2576036     -3.0971021      4.881519       1.7844168    
       190   3.2605607     -3.1046025      4.8859502      1.7813477    
       192   3.276785      -3.1285556      4.9102623      1.7817067    
       194   3.3275164     -3.2049927      4.9862833      1.7812906    
       196   3.3954552     -3.3081922      5.0880896      1.7798974    
       198   3.4202593     -3.3431812      5.1252586      1.7820774    
       200   3.4245345     -3.3519087      5.1316649      1.7797562    
       202   3.3696585     -3.2680583      5.0494332      1.7813749    
       204   3.3083058     -3.1762885      4.9574962      1.7812077    
       206   3.2799489     -3.1332602      4.9150035      1.7817432    
       208   3.3278347     -3.2059918      4.9867604      1.7807685    
       210   3.4136593     -3.3371303      5.1153685      1.7782382    
       212   3.4315687     -3.3643886      5.1422057      1.7778171    
       214   3.3651811     -3.2646839      5.042724       1.77804      
       216   3.2678469     -3.1132355      4.8968686      1.7836331    
       218   3.3031302     -3.1705753      4.9497406      1.7791653    
       220   3.3478413     -3.2372565      5.0167402      1.7794837    
       222   3.3639919     -3.2618295      5.0409418      1.7791123    
       224   3.342641      -3.2302012      5.0089476      1.7787464    
       226   3.306431      -3.1756958      4.9546869      1.778991     
       228   3.2995563     -3.164969       4.9443852      1.7794162    
       230   3.3120448     -3.1849981      4.9630992      1.7781011    
       232   3.3263816     -3.2061924      4.9845828      1.7783904    
       234   3.3611018     -3.2581033      5.036611       1.7785077    
       236   3.434073      -3.3667322      5.1459584      1.7792262    
       238   3.4825017     -3.4427503      5.2185289      1.7757786    
       240   3.4118304     -3.3323439      5.1126278      1.7802839    
       242   3.3694689     -3.2679087      5.0491491      1.7812405    
       244   3.3919702     -3.3034513      5.0828673      1.779416     
       246   3.4043386     -3.321055       5.1014015      1.7803465    
       248   3.4288816     -3.3573425      5.1381791      1.7808365    
       250   3.4756667     -3.4299537      5.2082866      1.7783328    
       252   3.4531399     -3.3980091      5.1745301      1.7765209    
       254   3.3614324     -3.2565183      5.0371065      1.7805882    
       256   3.35861       -3.2531075      5.0328771      1.7797697    
       258   3.4193142     -3.3470045      5.1238423      1.7768378    
       260   3.4514207     -3.3939496      5.1719539      1.7780043    
       262   3.4573664     -3.4037609      5.1808636      1.7771027    
       264   3.4178657     -3.3434421      5.1216718      1.7782296    
       266   3.3744614     -3.2783921      5.0566304      1.7782382    
       268   3.3791309     -3.2857723      5.0636277      1.7778554    
       270   3.4186504     -3.3470413      5.1228477      1.7758063    
       272   3.3903895     -3.3031389      5.0804987      1.7773598    
       274   3.337763      -3.224108       5.0016379      1.7775299    
       276   3.3053325     -3.1750851      4.9530408      1.7779556    
       278   3.3146441     -3.1896887      4.9669942      1.7773055    
       280   3.352241      -3.2458096      5.0233332      1.7775236    
       282   3.4017391     -3.3201639      5.097506       1.7773421    
       284   3.4374887     -3.373793       5.1510768      1.7772838    
       286   3.4476384     -3.3896121      5.1662861      1.776674     
       288   3.4443785     -3.3829693      5.1614013      1.7784319    
       290   3.4534328     -3.3974958      5.1749691      1.7774733    
       292   3.4581765     -3.4054677      5.1820774      1.7766098    
       294   3.429736      -3.3628226      5.1394593      1.7766367    
       296   3.3879602     -3.2984718      5.0768584      1.7783866    
       298   3.4031354     -3.3232573      5.0995984      1.7763411    
       300   3.4033659     -3.3234079      5.0999439      1.776536     
       302   3.4068634     -3.3278415      5.1051848      1.7773433    
       304   3.4371458     -3.3765153      5.150563       1.7740476    
       306   3.4004559     -3.3176888      5.0955832      1.7778945    
       308   3.3721476     -3.2745274      5.0531632      1.7786358    
       310   3.3865512     -3.2986227      5.074747       1.7761243    
       312   3.3930979     -3.3079257      5.0845572      1.7766315    
       314   3.4146909     -3.3422048      5.1169143      1.7747096    
       316   3.4112205     -3.3376565      5.111714       1.7740575    
       318   3.3655071     -3.2686766      5.0432124      1.7745357    
       320   3.3398375     -3.2272365      5.0047466      1.7775101    
       322   3.4038335     -3.3254059      5.1006445      1.7752387    
       324   3.4730593     -3.4300616      5.2043794      1.7743178    
       326   3.459627      -3.4108749      5.1842511      1.7733762    
       328   3.3722775     -3.2749876      5.0533578      1.7783703    
       330   3.3674078     -3.2696209      5.0460606      1.7764397    
       332   3.4366832     -3.3758132      5.1498697      1.7740565    
       334   3.4847317     -3.4474665      5.2218704      1.7744039    
       336   3.5378567     -3.5262426      5.3014783      1.7752357    
       338   3.6014624     -3.6254571      5.3967914      1.7713343    
       340   3.5494309     -3.5443125      5.3188222      1.7745097    
       342   3.4992707     -3.4689084      5.2436571      1.7747487    
       344   3.4716269     -3.4335262      5.202233       1.7687068    
       346   3.3892411     -3.304809       5.0787778      1.7739687    
       348   3.3769447     -3.2897652      5.0603517      1.7705865    
       350   3.3552604     -3.2558622      5.0278577      1.7719954    
       352   3.359833      -3.2624113      5.0347098      1.7722986    
       354   3.4087535     -3.3341273      5.1080171      1.7738898    
       356   3.5033828     -3.478065       5.2498191      1.7717541    
       358   3.5539497     -3.5543801      5.3255936      1.7712135    
       360   3.541659      -3.5342639      5.307176       1.7729121    
       362   3.4947984     -3.465331       5.2369554      1.7716244    
       364   3.4326269     -3.368171       5.1437914      1.7756204    
       366   3.4417146     -3.3837747      5.1574093      1.7736346    
       368   3.4564253     -3.4058221      5.1794533      1.7736311    
       370   3.4447243     -3.3876335      5.1619194      1.7742859    
       372   3.4027423     -3.3229204      5.0990093      1.7760889    
       374   3.4057171     -3.3278573      5.103467       1.7756097    
       376   3.4523746     -3.4007378      5.1733834      1.7726456    
       378   3.4634959     -3.4168888      5.1900486      1.7731597    
       380   3.4229212     -3.3560018      5.1292475      1.7732457    
       382   3.3906032     -3.3053815      5.080819       1.7754374    
       384   3.4395174     -3.3786884      5.1541168      1.7754284    
       386   3.5494789     -3.5478628      5.3188941      1.7710313    
       388   3.5854787     -3.6023129      5.3728399      1.770527     
       390   3.5363174     -3.5268049      5.2991716      1.7723667    
       392   3.4816499     -3.4444242      5.2172524      1.7728282    
       394   3.4700614     -3.4271063      5.199887       1.7727807    
       396   3.5153425     -3.4970783      5.2677407      1.7706625    
       398   3.5181994     -3.5007671      5.2720218      1.7712547    
       400   3.4637128     -3.417769       5.1903737      1.7726046    
       402   3.4378398     -3.3795221      5.151603       1.7720809    
       404   3.4180189     -3.3521898      5.1219014      1.7697116    
       406   3.3866506     -3.3013284      5.0748959      1.7735675    
       408   3.4745796     -3.4367841      5.2066575      1.7698734    
       410   3.5414441     -3.5357619      5.306854       1.7710921    
       412   3.5580886     -3.5591653      5.3317958      1.7726305    
       414   3.5662679     -3.5733465      5.3440524      1.7707059    
       416   3.5379115     -3.528495       5.3015604      1.7730654    
       418   3.5370362     -3.5263096      5.3002488      1.7739392    
       420   3.5697579     -3.5782016      5.3492822      1.7710806    
       422   3.531914      -3.5206275      5.2925732      1.7719457    
       424   3.4537147     -3.3992373      5.1753915      1.7761542    
       426   3.4544806     -3.4048007      5.1765391      1.7717384    
       428   3.4575596     -3.4087339      5.181153       1.7724191    
       430   3.4416802     -3.3855512      5.1573578      1.7718066    
       432   3.4100633     -3.3397974      5.1099799      1.7701824    
       434   3.3714885     -3.2777072      5.0521755      1.7744684    
       436   3.4355017     -3.3769572      5.1480993      1.7711421    
       438   3.5124757     -3.4937156      5.2634449      1.7697293    
       440   3.5122879     -3.4920526      5.2631634      1.7711108    
       442   3.4867376     -3.4530302      5.2248763      1.7718461    
       444   3.4723238     -3.4301035      5.2032772      1.7731737    
       446   3.4795508     -3.4420062      5.2141069      1.7721007    
       448   3.4941608     -3.4638169      5.236          1.7721831    
       450   3.480329      -3.4441016      5.2152731      1.7711714    
       452   3.4365449     -3.3755542      5.1496625      1.7741083    
       454   3.435808      -3.3776445      5.1485583      1.7709138    
       456   3.4070802     -3.3331007      5.1055097      1.7724089    
       458   3.3732918     -3.2827255      5.0548778      1.7721523    
       460   3.3492501     -3.2455603      5.0188512      1.773291     
       462   3.3822941     -3.293325       5.0683677      1.7750427    
       464   3.4885752     -3.4568424      5.2276299      1.7707875    
       466   3.5404373     -3.5330783      5.3053453      1.772267     
       468   3.5435885     -3.5367163      5.3100674      1.7733511    
       470   3.5244988     -3.5099339      5.2814614      1.7715276    
       472   3.4550984     -3.4037578      5.1774649      1.7737072    
       474   3.4207932     -3.3524272      5.1260587      1.7736315    
       476   3.4363755     -3.3776516      5.1494087      1.7717571    
       478   3.4575086     -3.4084137      5.1810766      1.772663     
       480   3.4977301     -3.4701949      5.2413485      1.7711536    
       482   3.5003936     -3.4738409      5.2453399      1.7714989    
       484   3.4756226     -3.4342225      5.2082205      1.773998     
       486   3.5221434     -3.5044292      5.2779318      1.7735027    
       488   3.6026592     -3.6285264      5.3985848      1.7700584    
       490   3.5787132     -3.5886095      5.3627018      1.7740923    
       492   3.5313502     -3.5154183      5.2917282      1.77631      
       494   3.5311071     -3.5198713      5.291364       1.7714927    
       496   3.4823823     -3.445193       5.2183499      1.7731569    
       498   3.427076      -3.3627158      5.1354734      1.7727576    
       500   3.4173633     -3.3456643      5.1209189      1.7752546    
       502   3.4868175     -3.4537511      5.2249961      1.771245     
       504   3.5038084     -3.4797262      5.2504569      1.7707306    
       506   3.4731672     -3.4306877      5.204541       1.7738533    
       508   3.4930744     -3.4617634      5.234372       1.7726086    
       510   3.5258732     -3.512084       5.2835209      1.771437     
       512   3.5341957     -3.525318       5.2959922      1.7706742    
       514   3.5173359     -3.4991979      5.2707279      1.77153      
       516   3.4999483     -3.4727777      5.2446725      1.7718948    
       518   3.4840564     -3.4478736      5.2208585      1.7729849    
       520   3.4783607     -3.442048       5.2123235      1.7702755    
       522   3.4547145     -3.4035829      5.1768897      1.7733067    
       524   3.4920562     -3.4608477      5.2328462      1.7719984    
       526   3.5251016     -3.5106377      5.2823648      1.771727     
       528   3.5060576     -3.4831678      5.2538274      1.7706596    
       530   3.4693672     -3.4269108      5.1988468      1.7719359    
       532   3.468628      -3.4269478      5.197739       1.7707912    
       534   3.4735766     -3.4329745      5.2051545      1.77218      
       536   3.5165704     -3.4984029      5.2695807      1.7711778    
       538   3.5476654     -3.5467062      5.3161766      1.7694704    
       540   3.5135745     -3.492617       5.2650914      1.7724743    
       542   3.5063161     -3.4814104      5.2542147      1.7728043    
       544   3.517849      -3.500757       5.2714967      1.7707397    
       546   3.4912362     -3.4574295      5.2316175      1.7741879    
       548   3.4889821     -3.4578055      5.2282397      1.7704343    
       550   3.4385742     -3.380579       5.1527035      1.7721244    
       552   3.4069257     -3.3327829      5.1052781      1.7724952    
       554   3.4130951     -3.3421223      5.1145229      1.7724006    
       556   3.4395741     -3.3825743      5.1542018      1.7716275    
       558   3.4757546     -3.4377115      5.2084183      1.7707068    
       560   3.4958013     -3.4689204      5.2384582      1.7695378    
       562   3.4945752     -3.4657271      5.2366209      1.7708938    
       564   3.4856335     -3.4513805      5.2232219      1.7718414    
       566   3.485665      -3.4522892      5.223269       1.7709798    
       568   3.4677915     -3.4231765      5.1964856      1.7733091    
       570   3.4566253     -3.4048543      5.179753       1.7748987    
       572   3.5167025     -3.4959063      5.2697786      1.7738724    
       574   3.5811341     -3.5986127      5.3663295      1.7677168    
       576   3.5256001     -3.5109778      5.2831118      1.7721339    
       578   3.4840986     -3.4495828      5.2209218      1.771339     
       580   3.4871385     -3.4559471      5.2254771      1.76953      
       582   3.5072506     -3.4838428      5.255615       1.7717721    
       584   3.5590615     -3.5653194      5.3332536      1.7679343    
       586   3.5447596     -3.5425202      5.3118223      1.769302     
       588   3.47304       -3.4325678      5.2043505      1.7717826    
       590   3.4186423     -3.3508852      5.1228354      1.7719503    
       592   3.4275209     -3.3627689      5.1361401      1.7733713    
       594   3.5035933     -3.479107       5.2501345      1.7710275    
       596   3.552061      -3.5517764      5.3227634      1.770987     
       598   3.5452611     -3.542033       5.3125738      1.7705408    
       600   3.4965184     -3.4675875      5.2395328      1.7719453    
       602   3.4612901     -3.4162197      5.1867432      1.7705235    
       604   3.4437761     -3.3891841      5.1604985      1.7713145    
       606   3.4383971     -3.3813146      5.1524381      1.7711235    
       608   3.4384474     -3.3826863      5.1525135      1.7698272    
       610   3.4161414     -3.3500262      5.1190878      1.7690617    
       612   3.3741263     -3.2846129      5.0561283      1.7715154    
       614   3.3975877     -3.3217979      5.0912851      1.7694872    
       616   3.4348776     -3.3803162      5.147164       1.7668478    
       618   3.4042232     -3.330989       5.1012284      1.7702394    
       620   3.4195001     -3.3556576      5.124121       1.7684633    
       622   3.4275569     -3.3688182      5.136194       1.7673759    
       624   3.3970054     -3.3216399      5.0904126      1.7687727    
       626   3.4125983     -3.3439179      5.1137785      1.7698606    
       628   3.4556266     -3.4111681      5.1782565      1.7670884    
       630   3.464404      -3.421278       5.1914094      1.7701314    
       632   3.5130869     -3.4943521      5.2643608      1.7700087    
       634   3.560596      -3.5689572      5.3355531      1.7665959    
       636   3.5066768     -3.4841728      5.2547552      1.7705824    
       638   3.4691438     -3.4277363      5.1985119      1.7707757    
       640   3.4792117     -3.4432671      5.2135988      1.7703317    
       642   3.4975907     -3.4699077      5.2411396      1.7712319    
       644   3.5050476     -3.4838292      5.2523138      1.7684846    
       646   3.4466583     -3.3941536      5.1648175      1.7706639    
       648   3.4033947     -3.329794       5.0999869      1.7701929    
       650   3.401842      -3.328213       5.0976603      1.7694473    
       652   3.4129665     -3.3439429      5.1143303      1.7703874    
       654   3.4675732     -3.4256407      5.1961584      1.7705177    
       656   3.5716194     -3.5830782      5.3520716      1.7689934    
       658   3.6198462     -3.6576339      5.4243395      1.7667056    
       660   3.5411131     -3.5382854      5.3063581      1.7680726    
       662   3.4313936     -3.370913       5.1419433      1.7710303    
       664   3.4122235     -3.3437972      5.1132169      1.7694198    
       666   3.450942      -3.4036851      5.1712366      1.7675515    
       668   3.4700483     -3.4323378      5.1998674      1.7675296    
       670   3.4662396     -3.4236307      5.1941601      1.7705293    
       672   3.5191366     -3.5049536      5.2734262      1.7684726    
       674   3.5554697     -3.5582168      5.3278714      1.7696546    
       676   3.5523696     -3.553064       5.3232259      1.7701619    
       678   3.5243573     -3.5086528      5.2812494      1.7725967    
       680   3.5345993     -3.5266101      5.2965971      1.769987     
       682   3.5346929     -3.5271997      5.2967373      1.7695376    
       684   3.4975328     -3.4691252      5.2410529      1.7719277    
       686   3.4978812     -3.4699497      5.241575       1.7716253    
       688   3.5126205     -3.4930583      5.2636618      1.7706035    
       690   3.4920538     -3.4599301      5.2328426      1.7729126    
       692   3.4875012     -3.4533506      5.2260205      1.77267      
       694   3.4787944     -3.4421058      5.2129735      1.7708677    
       696   3.4505914     -3.3948094      5.1707113      1.7759019    
       698   3.4859441     -3.4515396      5.2236872      1.7721477    
       700   3.5144981     -3.4945458      5.2664754      1.7719296    
       702   3.5270341     -3.51219        5.2852606      1.7730706    
       704   3.5503783     -3.5488034      5.3202418      1.7714384    
       706   3.5457136     -3.540423       5.3132518      1.7728288    
       708   3.5339925     -3.5234593      5.2956878      1.7722285    
       710   3.5314818     -3.517887       5.2919254      1.7740384    
       712   3.5607907     -3.5637802      5.3358448      1.7720646    
       714   3.5616091     -3.5649632      5.3370713      1.7721081    
       716   3.5226753     -3.5060825      5.278729       1.7726465    
       718   3.5067092     -3.4805981      5.2548038      1.7742057    
       720   3.540516      -3.534785       5.3054632      1.7706782    
       722   3.5303117     -3.518923       5.2901721      1.7712491    
       724   3.4851118     -3.4499048      5.22244        1.7725352    
       726   3.4440471     -3.3866714      5.1609045      1.7742331    
       728   3.4808854     -3.4434159      5.2161068      1.7726908    
       730   3.545114      -3.5441675      5.3123533      1.7681858    
       732   3.5128914     -3.4929274      5.2640677      1.7711403    
       734   3.4514102     -3.3985473      5.1719383      1.7733909    
       736   3.4376214     -3.3801856      5.1512757      1.7710901    
       738   3.4268913     -3.3610311      5.1351966      1.7741655    
       740   3.4703435     -3.4287924      5.2003097      1.7715173    
       742   3.4977318     -3.4693671      5.241351       1.7719839    
       744   3.5166633     -3.4983811      5.2697199      1.7713388    
       746   3.5387277     -3.5302743      5.3027835      1.7725092    
       748   3.5959502     -3.6175814      5.3885313      1.77095      
       750   3.6126653     -3.6459876      5.4135789      1.7675913    
       752   3.5280642     -3.5151013      5.2868042      1.7717028    
       754   3.4556516     -3.4054428      5.1782939      1.7728511    
       756   3.4557903     -3.4081646      5.1785017      1.7703371    
       758   3.4598688     -3.4138562      5.1846134      1.7707572    
       760   3.4851518     -3.4518335      5.2225         1.7706665    
       762   3.5227797     -3.5096764      5.2788853      1.7692089    
       764   3.4896569     -3.4586195      5.2292509      1.7706314    
       766   3.4433483     -3.3894506      5.1598574      1.7704067    
       768   3.4320712     -3.371368       5.1429587      1.7715907    
       770   3.4863869     -3.4550944      5.2243508      1.7692564    
       772   3.5327164     -3.5250337      5.2937756      1.7687419    
       774   3.5447065     -3.544485       5.3117427      1.7672577    
       776   3.488249      -3.4583371      5.2271411      1.768804     
       778   3.4048069     -3.3294948      5.1021031      1.7726084    
       780   3.4038246     -3.3310699      5.1006311      1.7695612    
       782   3.4296395     -3.3704935      5.1393148      1.7688213    
       784   3.4292936     -3.3691093      5.1387964      1.7696871    
       786   3.4380861     -3.3825907      5.151972       1.7693813    
       788   3.4606966     -3.4183408      5.1858539      1.7675131    
       790   3.4481332     -3.3965457      5.1670276      1.7704819    
       792   3.4670315     -3.4231905      5.1953467      1.7721563    
       794   3.529696      -3.5218648      5.2892495      1.7673847    
       796   3.5426875     -3.5385927      5.3087172      1.7701245    
       798   3.5652566     -3.5709441      5.342537       1.7715929    
       800   3.6199845     -3.6560688      5.4245468      1.7684781    
       802   3.630398      -3.6704814      5.4401514      1.76967      
       804   3.577934      -3.5946256      5.3615341      1.7669085    
       806   3.4678505     -3.4241384      5.196574       1.7724356    
       808   3.4703412     -3.4312769      5.2003062      1.7690293    
       810   3.5134029     -3.4971468      5.2648342      1.7676874    
       812   3.532321      -3.5252576      5.293183       1.7679254    
       814   3.5184722     -3.5046239      5.2724306      1.7678067    
       816   3.4954145     -3.4668972      5.2378786      1.7709814    
       818   3.535177      -3.529203       5.2974627      1.7682597    
       820   3.5508707     -3.5521198      5.3209797      1.7688599    
       822   3.5283258     -3.5179898      5.2871962      1.7692064    
       824   3.4854448     -3.4525944      5.2229391      1.7703447    
       826   3.4745586     -3.4354131      5.206626       1.7712129    
       828   3.522001      -3.5080697      5.2777185      1.7696488    
       830   3.565489      -3.5736767      5.3428852      1.7692085    
       832   3.564005      -3.5714581      5.3406614      1.7692033    
       834   3.521648      -3.504568       5.2771895      1.7726215    
       836   3.5304912     -3.5186839      5.2904411      1.7717573    
       838   3.5525277     -3.5533959      5.3234628      1.7700669    
       840   3.5190109     -3.5026501      5.2732379      1.7705878    
       842   3.4786395     -3.4429737      5.2127413      1.7697677    
       844   3.4549421     -3.4082675      5.1772308      1.7689633    
       846   3.4393165     -3.3823821      5.1538158      1.7714337    
       848   3.4837925     -3.4489171      5.2204631      1.7715459    
       850   3.5539329     -3.5550149      5.3255684      1.7705535    
       852   3.5836776     -3.6011863      5.3701409      1.7689546    
       854   3.5508712     -3.5501597      5.3209805      1.7708208    
       856   3.4975567     -3.4708026      5.2410886      1.7702861    
       858   3.4507676     -3.4003048      5.1709752      1.7706704    
       860   3.4580713     -3.4105898      5.1819198      1.77133      
       862   3.502315      -3.475084       5.248219       1.773135     
       864   3.5676648     -3.5763942      5.3461457      1.7697515    
       866   3.5674207     -3.5732447      5.3457799      1.7725352    
       868   3.5530173     -3.5507484      5.3241964      1.773448     
       870   3.5682847     -3.5747036      5.3470746      1.772371     
       872   3.5785278     -3.5895767      5.3624239      1.7728472    
       874   3.5911744     -3.6097048      5.3813748      1.77167      
       876   3.5723432     -3.5793878      5.3531563      1.7737685    
       878   3.5822582     -3.5986738      5.3680139      1.76934      
       880   3.5374138     -3.530004       5.3008146      1.7708106    
       882   3.4902976     -3.4569972      5.230211       1.7732138    
       884   3.5318318     -3.5217162      5.29245        1.7707338    
       886   3.584501      -3.6020005      5.3713748      1.7693742    
       888   3.5868361     -3.6030642      5.3748739      1.7718097    
       890   3.582287      -3.5973821      5.368057       1.7706749    
       892   3.5604795     -3.5655298      5.3353786      1.7698487    
       894   3.5387699     -3.5299845      5.3028466      1.7728621    
       896   3.5685713     -3.5763473      5.347504       1.7711567    
       898   3.5908679     -3.6121966      5.3809155      1.768719     
       900   3.5254275     -3.5110199      5.2828531      1.7718332    
       902   3.4662217     -3.4200546      5.1941333      1.7740786    
       904   3.4941598     -3.4662234      5.2359985      1.7697751    
       906   3.4893566     -3.4578052      5.2288008      1.7709956    
       908   3.4498794     -3.396871       5.1696443      1.7727733    
       910   3.4601899     -3.4134473      5.1850946      1.7716473    
       912   3.494971      -3.4657738      5.2372141      1.7714403    
       914   3.5436341     -3.5377675      5.3101357      1.7723683    
       916   3.5815902     -3.5951735      5.3670129      1.7718395    
       918   3.5787549     -3.5897246      5.3627643      1.7730397    
       920   3.5651515     -3.5707754      5.3423795      1.7716041    
       922   3.5170002     -3.4968775      5.2702248      1.7733473    
       924   3.4817936     -3.44478        5.2174678      1.7726878    
       926   3.4611342     -3.4140762      5.1865096      1.7724334    
       928   3.4493172     -3.3962744      5.1688019      1.7725275    
       930   3.4622005     -3.4149085      5.1881074      1.7731989    
       932   3.531314      -3.5210887      5.291674       1.7705853    
       934   3.5448355     -3.5417313      5.311936       1.7702047    
       936   3.481272      -3.4428504      5.2166861      1.7738357    
       938   3.4796067     -3.4405048      5.2141906      1.7736857    
       940   3.5503615     -3.5499061      5.3202166      1.7703105    
       942   3.5998532     -3.6235815      5.3943801      1.7707986    
       944   3.5933396     -3.6144759      5.3846193      1.7701434    
       946   3.5623734     -3.5680641      5.3382166      1.7701525    
       948   3.5228556     -3.5102496      5.2789991      1.7687495    
       950   3.45414       -3.4056563      5.1760287      1.7703724    
       952   3.4295187     -3.368789       5.1391338      1.7703448    
       954   3.4416353     -3.3876509      5.1572905      1.7696395    
       956   3.4527877     -3.4041057      5.1740023      1.7698966    
       958   3.4559309     -3.4074455      5.1787124      1.7712669    
       960   3.4989926     -3.4730672      5.2432405      1.7701733    
       962   3.5591644     -3.5642473      5.3334079      1.7691606    
       964   3.5713672     -3.5793929      5.3516938      1.7723009    
       966   3.5986436     -3.6215087      5.3925674      1.7710586    
       968   3.6024768     -3.6275384      5.3983115      1.7707731    
       970   3.5713242     -3.5806968      5.3516293      1.7709325    
       972   3.5307177     -3.5205935      5.2907805      1.770187     
       974   3.4757221     -3.4373275      5.2083696      1.7710421    
       976   3.4485194     -3.3953193      5.1676062      1.7722869    
       978   3.5027253     -3.4773582      5.2488339      1.7714757    
       980   3.5899716     -3.6115308      5.3795725      1.7680417    
       982   3.5869754     -3.60459        5.3750826      1.7704926    
       984   3.5388952     -3.5309273      5.3030345      1.7721072    
       986   3.5333082     -3.5243093      5.2946623      1.770353     
       988   3.5378973     -3.5311336      5.3015391      1.7704055    
       990   3.5461077     -3.5431333      5.3138424      1.7707091    
       992   3.5689743     -3.5792163      5.348108       1.7688917    
       994   3.5797691     -3.5951165      5.364284       1.7691675    
       996   3.5823414     -3.6002396      5.3681385      1.7678989    
       998   3.5546356     -3.5570889      5.3266214      1.7695326    
      1000   3.5428274     -3.5389429      5.3089268      1.7699839    
Loop time of 2.47713 on 1 procs for 1000 steps with 1000 atoms

Performance: 174395.369 tau/day, 403.693 timesteps/s, 403.693 katom-step/s
13.9% CPU use with 1 MPI tasks x 1 OpenMP threads

MPI task timing breakdown:
Section |  min time  |  avg time  |  max time  |%varavg| %total
---------------------------------------------------------------
Pair    | 1.4566     | 1.4566     | 1.4566     |   0.0 | 58.80
Neigh   | 0.75784    | 0.75784    | 0.75784    |   0.0 | 30.59
Comm    | 0.046385   | 0.046385   | 0.046385   |   0.0 |  1.87
Output  | 0.12215    | 0.12215    | 0.12215    |   0.0 |  4.93
Modify  | 0.070483   | 0.070483   | 0.070483   |   0.0 |  2.85
Other   |            | 0.02367    |            |       |  0.96

Nlocal:           1000 ave        1000 max        1000 min
Histogram: 1 0 0 0 0 0 0 0 0 0
Nghost:           3129 ave        3129 max        3129 min
Histogram: 1 0 0 0 0 0 0 0 0 0
Neighs:          46607 ave       46607 max       46607 min
Histogram: 1 0 0 0 0 0 0 0 0 0

Total # of neighbors = 46607
Ave neighs/atom = 46.607
Neighbor list builds = 221
Dangerous builds = 0
Total wall time: 0:00:02
