LAMMPS (17 Apr 2024)
OMP_NUM_THREADS environment is not set. Defaulting to 1 thread. (src/comm.cpp:98)
  using 1 OpenMP thread(s) per MPI task
Loaded 1 plugins from C:\Users\emanu\AppData\Local\LAMMPS 64-bit 17Apr2024\plugins
Reading data file ...
  orthogonal box = (0 0 0) to (9.4 9.4 9.4)
  1 by 1 by 1 MPI processor grid
  reading atoms ...
  1000 atoms
  reading velocities ...
  1000 velocities
  read_data CPU = 0.009 seconds
800 atoms in group A
200 atoms in group B
Generated 0 of 1 mixed pair_coeff terms from geometric mixing rule
Neighbor list info ...
  update: every = 1 steps, delay = 0 steps, check = yes
  max neighbors/atom: 2000, page size: 100000
  master list distance cutoff = 2.8
  ghost atom cutoff = 2.8
  binsize = 1.4, bins = 7 7 7
  1 neighbor lists, perpetual/occasional/extra = 1 0 0
  (1) pair lj/cut, perpetual
      attributes: half, newton on
      pair build: half/bin/atomonly/newton
      stencil: half/bin/3d
      bin: standard
Setting up Verlet run ...
  Unit style    : lj
  Current step  : 0
  Time step     : 0.005
Per MPI rank memory allocation (min/avg/max) = 3.934 | 3.934 | 3.934 Mbytes
    v_tLJ        c_msdA[4]      c_msdB[4]        PotEng         TotEng    
 0              0              0              1.0571021      1.8071021    
 0.005          3.7246269e-05  3.9352194e-05  1.0745162      1.8076805    
 0.01           0.00014404097  0.00015700052  1.1190435      1.8091667    
 0.015          0.00030763306  0.00035159176  1.1671812      1.8110576    
 0.02           0.00051322937  0.00062071659  1.1893772      1.8125737    
 0.025          0.00075142025  0.00096077099  1.1622464      1.8129648    
 0.03           0.0010241867   0.0013667319   1.0797797      1.8119301    
 0.035          0.0013465334   0.0018318214   0.95660343     1.8097839    
 0.04           0.0017428264   0.0023470443   0.8208643      1.8072596    
 0.045          0.002239696    0.0029006469   0.70140124     1.8049234    
 0.05           0.0028587248   0.0034777336   0.61653246     1.8026212    
 0.055          0.0036115741   0.0040606719   0.57025856     1.8008809    
 0.06           0.0044987424   0.0046310421   0.55139698     1.7994194    
 0.065          0.0055118566   0.0051737021   0.54001116     1.7984217    
 0.07           0.006638392    0.0056823544   0.51329093     1.7968218    
 0.075          0.0078671477   0.0061650564   0.45542168     1.7948072    
 0.08           0.0091926885   0.0066476027   0.36024404     1.792082     
 0.085          0.010617689    0.007173238    0.23284726     1.7892699    
 0.09           0.012153054    0.0077981667   0.084222904    1.7861087    
 0.095          0.013816553    0.0085836138  -0.071298716    1.7841633    
 0.1            0.015631084    0.0095859353  -0.22405754     1.7829883    
 0.105          0.017623485    0.010846227   -0.36900837     1.7819234    
 0.11           0.01982401     0.012380937   -0.50392798     1.7820191    
 0.115          0.022266073    0.014175464   -0.63333107     1.7820255    
 0.12           0.024985876    0.016184235   -0.7642501      1.7817866    
 0.125          0.028021677    0.018337977   -0.90511356     1.7826345    
 0.13           0.03141227     0.020558196   -1.0689906      1.7835227    
 0.135          0.035194188    0.022783069   -1.263734       1.7841488    
 0.14           0.039397638    0.024991907   -1.4870237      1.7849526    
 0.145          0.044043005    0.027212772   -1.7304035      1.7847076    
 0.15           0.049138445    0.029516649   -1.9760556      1.7833086    
 0.155          0.054676071    0.032003781   -2.2004875      1.7835555    
 0.16           0.060628136    0.034785686   -2.3910229      1.7834153    
 0.165          0.066946591    0.037968247   -2.5367303      1.7836634    
 0.17           0.07356305     0.041638738   -2.6313761      1.7841402    
 0.175          0.080390499    0.045854475   -2.6740999      1.784574     
 0.18           0.087327788    0.050636642   -2.6696851      1.7864341    
 0.185          0.094267097    0.055972628   -2.6349307      1.7881958    
 0.19           0.10110568     0.061829889   -2.5882354      1.7896477    
 0.195          0.10775806     0.0681694     -2.5437886      1.7918177    
 0.2            0.11416352     0.074944189   -2.5168267      1.7932016    
 0.205          0.12029239     0.082099406   -2.5100866      1.7928588    
 0.21           0.12614285     0.089572187   -2.5117026      1.7929105    
 0.215          0.13173129     0.097284535   -2.515451       1.7926615    
 0.22           0.13708861     0.10514001    -2.5192061      1.7925358    
 0.225          0.14225865     0.11302869    -2.5248994      1.7926873    
 0.23           0.14729169     0.12084677    -2.5394018      1.7933057    
 0.235          0.15223468     0.12853599    -2.5682686      1.7925056    
 0.24           0.15712553     0.13610043    -2.6003433      1.7914243    
 0.245          0.16199277     0.14356306    -2.6232148      1.7914295    
 0.265          0.18147138     0.17226203    -2.6624153      1.7918056    
 0.29           0.20546765     0.20512006    -2.6392256      1.791318     
 0.315          0.22837972     0.23332756    -2.8048989      1.7880181    
 0.34           0.24900538     0.26025733    -2.8133508      1.7905692    
 0.37           0.27017436     0.29105183    -2.8503833      1.7903682    
 0.4            0.28764534     0.32218009    -2.8213469      1.7892095    
 0.435          0.30323561     0.35918049    -2.918765       1.7855258    
 0.47           0.31806848     0.39692372    -2.8686453      1.7857525    
 0.51           0.33302185     0.43612511    -3.0127852      1.7882254    
 0.55           0.35091223     0.47213094    -2.8725323      1.7887783    
 0.595          0.37501694     0.52535097    -2.9439798      1.7901986    
 0.645          0.40162645     0.59497781    -2.8741574      1.7874165    
 0.7            0.42696046     0.66072402    -3.0901749      1.7855343    
 0.76           0.46918216     0.72997728    -3.0323073      1.7858071    
 0.825          0.51708009     0.81070026    -3.1568854      1.7823643    
 0.895          0.56458809     0.89692132    -3.1090688      1.7828575    
 0.97           0.61109166     0.99977845    -3.2049927      1.7812906    
 1.05           0.66240471     1.1065339     -3.3371303      1.7782382    
 1.14           0.71407097     1.2272615     -3.164969       1.7794162    
 1.235          0.76555213     1.3423724     -3.3320494      1.7810591    
 1.34           0.82091915     1.4591255     -3.2857723      1.7778554    
 1.45           0.88026137     1.5434848     -3.3974958      1.7774733    
 1.575          0.97728544     1.6387669     -3.3570208      1.7725395    
 1.705          1.0527401      1.7521007     -3.4907911      1.7760215    
 1.85           1.1402858      2.0205518     -3.3876335      1.7742859    
 2.005          1.2147014      2.2285611     -3.3830301      1.7740076    
 2.175          1.2996654      2.3883837     -3.3064713      1.7739195    
 2.36           1.3858243      2.5923199     -3.4037578      1.7737072    
 2.56           1.5261822      2.8326026     -3.525318       1.7706742    
 2.775          1.711067       3.1121985     -3.3589498      1.7720664    
 3.01           1.8683486      3.3168103     -3.4162197      1.7705235    
 3.26           2.0740845      3.5443039     -3.3439429      1.7703874    
 3.535          2.2434153      3.9616984     -3.5325064      1.7722816    
 3.835          2.477908       4.3780746     -3.3733293      1.7705326    
 4.155          2.64966        4.8269319     -3.5863553      1.7680758    
 4.51           2.9444981      5.32531       -3.4200546      1.7740786    
 4.89           3.1234574      5.7560504     -3.4773582      1.7714757    
 5.3            3.3971601      6.3358485     -3.6390431      1.7721811    
 5.745          3.6534558      6.8115546     -3.4263666      1.7682367    
 6.23           3.8805264      7.2802997     -3.5044548      1.7705262    
 6.755          4.2343948      7.8923196     -3.5935825      1.7681257    
 7.325          4.615727       8.7267245     -3.5635346      1.7682064    
 7.945          5.1381949      9.2827984     -3.4629558      1.7671107    
 8.615          5.541969       10.086264     -3.5030425      1.7697876    
 9.34           5.9113488      10.578618     -3.4072807      1.7688075    
 10.13          6.3347075      11.39691      -3.5900451      1.7656325    
 10.985         6.9957301      12.535417     -3.5719022      1.7667975    
 11.91          7.706392       13.84121      -3.4404137      1.7660298    
 12.915         8.3850534      14.840258     -3.6084688      1.7645224    
 14.005         9.2444614      15.590668     -3.645983       1.7679681    
 15.185         10.197565      17.223673     -3.5957099      1.7658708    
 16.465         11.000029      18.203585     -3.6209285      1.7653471    
 17.855         11.877059      19.69613      -3.5994913      1.7634622    
 19.365         12.883883      21.261568     -3.5055056      1.7672512    
 20.995         13.487533      23.123746     -3.6030406      1.7685956    
 22.765         14.790287      24.453443     -3.4867027      1.7669481    
 24.69          15.85551       25.89378      -3.4593518      1.7657932    
 26.77          17.080445      28.435088     -3.6179449      1.766765     
 29.03          18.526616      31.121051     -3.6307665      1.7644865    
 31.475         20.196289      34.3898       -3.6217641      1.7662262    
 34.135         21.408783      36.372543     -3.4669297      1.7663324    
 37.01          22.908855      39.886073     -3.5096149      1.7679775    
 40.135         25.082973      43.3269       -3.5671386      1.766259     
 43.52          27.012535      46.888855     -3.4534107      1.7687916    
 47.19          30.025556      50.543646     -3.5710918      1.764994     
 51.175         32.119672      54.04023      -3.5829011      1.766353     
 55.49          34.709796      59.383106     -3.5714968      1.766949     
 60.17          38.031031      63.784457     -3.6231153      1.767404     
 65.25          41.553575      69.16591      -3.5383821      1.7679474    
 70.75          45.186298      74.81495      -3.5034504      1.7666037    
 76.72          48.765938      80.466143     -3.544505       1.7639144    
 83.195         52.85692       85.675933     -3.5848402      1.7642134    
 90.21          58.32779       91.014682     -3.4542944      1.7694009    
 97.82          64.857015      96.616744     -3.5829041      1.7658192    
 106.075        69.973533      105.24022     -3.5970124      1.7654867    
 115.025        74.951764      117.83046     -3.6782843      1.7657117    
 124.73         82.170333      122.31134     -3.5468851      1.7639657    
 135.25         87.406767      136.52139     -3.4911067      1.7631765    
 146.66         93.760871      147.33888     -3.4726462      1.7671139    
 159.035        100.43951      151.31432     -3.5641191      1.7645972    
 172.45         107.55521      159.608       -3.3680978      1.7667761    
 187            118.55464      180.48609     -3.4529343      1.7648204    
 202.775        131.17645      193.76258     -3.3819649      1.7688946    
 219.885        143.63457      206.5195      -3.6312322      1.7647058    
 238.435        154.82507      224.98363     -3.6064699      1.7675203    
 258.55         168.21495      245.68064     -3.586909       1.7682846    
 280.36         183.00271      256.17929     -3.6526434      1.7663805    
 304.015        196.76497      267.14914     -3.383716       1.7661613    
 329.66         211.33512      285.88048     -3.4355959      1.7655882    
 357.475        230.48818      300.31545     -3.5433431      1.7629807    
 387.63         250.0179       331.01176     -3.5989249      1.7625947    
 420.335        277.68999      356.51395     -3.5478338      1.7637286    
 455.795        304.34762      403.86644     -3.566217       1.7657664    
 494.25         329.96891      448.9382      -3.508767       1.7623678    
 535.95         355.52487      496.38583     -3.6453119      1.7605497    
 581.165        379.99114      528.59171     -3.5268305      1.761807     
 630.195        409.17735      574.72908     -3.4814057      1.7646141    
 683.36         442.41672      623.28196     -3.545177       1.7664977    
 741.015        472.49349      676.06864     -3.4148469      1.766101     
 803.53         510.86625      765.63146     -3.5996044      1.761688     
 871.32         544.91047      812.98009     -3.4382579      1.7650794    
 944.83         587.31827      863.49558     -3.446765       1.7633705    
 1024.54        637.71316      925.36203     -3.4477967      1.7640337    
 1110.975       687.95142      987.52831     -3.4779936      1.7646176    
 1204.705       753.42192      1099.7056     -3.6027507      1.7641994    
 1306.34        811.07895      1201.8346     -3.4077223      1.7667803    
 1416.55        878.52971      1354.5527     -3.6665581      1.7623119    
 1536.06        954.82852      1473.7433     -3.5707715      1.7659099    
 1665.65        1034.1895      1611.9073     -3.6132001      1.7637386    
 1806.175       1117.1285      1701.2377     -3.522246       1.7615387    
 1958.555       1218.0612      1866.1009     -3.5609784      1.7637918    
 2123.79        1334.9003      2054.8922     -3.5170762      1.7651606    
 2302.965       1458.0631      2206.5443     -3.5535327      1.7661195    
 2497.255       1562.5847      2337.8897     -3.4439586      1.7681299    
 2707.94        1722.6853      2534.2043     -3.4678752      1.767344     
 2936.395       1839.0023      2642.9994     -3.4285544      1.762239     
 3184.125       1984.2803      2796.4937     -3.5459582      1.7650536    
 3452.76        2180.32        3122.81       -3.5822317      1.7640857    
 3744.055       2357.4875      3403.1234     -3.4682792      1.7647311    
 4059.925       2554.7797      3711.1162     -3.6305211      1.7648421    
 4402.445       2777.6953      3946.567      -3.3747544      1.7634958    
 4773.86        3011.6955      4204.4252     -3.5233768      1.7649601    
 5176.61        3269.2301      4608.7843     -3.5617881      1.7672677    
 5613.34        3511.1019      4965.7064     -3.5216869      1.7683191    
 6086.915       3815.8985      5374.8248     -3.6168214      1.7631533    
 6600.445       4093.0375      5944.8529     -3.5222875      1.7671178    
 7157.295       4386.5357      6546.6232     -3.5760139      1.7658347    
 7761.13        4775.5203      7200.9045     -3.481931       1.768145     
 8415.905       5142.7458      8002.0125     -3.3745894      1.7761185    
 9125.92        5599.0322      8795.0608     -3.4924718      1.770665     
 9895.835       6101.2127      9773.2525     -3.467632       1.7717051    
 10730.71       6521.7631      10844.478     -3.4196484      1.7749826    
 11636.015      7095.0581      11639.017     -3.5009834      1.7758591    
 12617.7        7671.2742      12228.521     -3.6236702      1.7778197    
 13682.2        8392.443       13289.393     -3.5820271      1.7806178    
 14836.515      9132.2683      14377.735     -3.6949614      1.7785989    
