ITEM: TIMESTEP
1
ITEM: NUMBER OF ATOMS
200
ITEM: BOX BOUNDS pp pp pp
0.0000000000000000e+00 9.4000000000000004e+00
0.0000000000000000e+00 9.4000000000000004e+00
0.0000000000000000e+00 9.4000000000000004e+00
ITEM: ATOMS id type x y z
801 2 0.474461 0.469623 7.98856
802 2 1.40602 0.473959 7.98721
803 2 2.34481 0.461456 7.98673
804 2 3.28895 0.470252 7.99072
805 2 4.22661 0.465469 7.98783
806 2 5.16875 0.468522 7.99061
807 2 6.10785 0.465604 7.99061
808 2 7.05245 0.469422 7.99207
809 2 7.98923 0.470817 7.99332
810 2 8.93362 0.469936 7.98662
811 2 0.468559 1.41071 7.98954
812 2 1.41067 1.40976 7.99145
813 2 2.34545 1.41155 7.98935
814 2 3.28774 1.41547 7.99568
815 2 4.23015 1.41302 7.99005
816 2 5.17445 1.41218 7.99154
817 2 6.10662 1.40857 7.98686
818 2 7.05106 1.41328 7.99603
819 2 7.99223 1.40871 7.98729
820 2 8.92955 1.40906 7.99205
821 2 0.473238 2.34614 7.98316
822 2 1.4073 2.34966 7.99468
823 2 2.3502 2.35283 7.98872
824 2 3.29355 2.34542 7.98891
825 2 4.229 2.34994 7.99858
826 2 5.16778 2.34855 7.99483
827 2 6.11079 2.34986 7.98686
828 2 7.04884 2.35099 7.99052
829 2 7.98823 2.35486 7.99243
830 2 8.92995 2.35383 7.98944
831 2 0.468314 3.28019 7.99068
832 2 1.40855 3.2924 7.98956
833 2 2.35 3.29827 7.99494
834 2 3.29001 3.28474 7.98461
835 2 4.23057 3.29146 7.99236
836 2 5.16798 3.2858 7.9921
837 2 6.11218 3.29845 7.99467
838 2 7.04931 3.29883 7.99162
839 2 7.99368 3.29108 7.99102
840 2 8.93184 3.29001 7.9927
841 2 0.464531 4.2253 7.98789
842 2 1.41356 4.2288 7.98814
843 2 2.3519 4.23007 7.9894
844 2 3.3001 4.22759 7.98969
845 2 4.22694 4.22531 7.98899
846 2 5.17002 4.22895 7.98792
847 2 6.10796 4.23271 7.98783
848 2 7.0439 4.22694 7.98654
849 2 7.98216 4.22457 7.98935
850 2 8.9347 4.2374 7.98593
851 2 0.474558 5.1744 7.98643
852 2 1.41514 5.16894 7.99151
853 2 2.34881 5.16543 7.98865
854 2 3.2961 5.17399 7.9929
855 2 4.22635 5.17459 7.9938
856 2 5.17226 5.16535 7.99405
857 2 6.10688 5.18043 7.98889
858 2 7.04835 5.16871 7.99334
859 2 7.98782 5.17473 7.98645
860 2 8.93306 5.16758 7.98629
861 2 0.473957 6.11531 7.99354
862 2 1.41009 6.10705 7.99325
863 2 2.35358 6.11467 7.98565
864 2 3.29299 6.11019 7.98773
865 2 4.23413 6.10862 7.98119
866 2 5.17414 6.10596 7.98426
867 2 6.11213 6.1074 7.99279
868 2 7.04964 6.11173 7.99417
869 2 7.99438 6.10931 7.98363
870 2 8.92689 6.10678 7.9898
871 2 0.470149 7.04906 7.99185
872 2 1.41398 7.04866 7.99129
873 2 2.35179 7.04917 7.99225
874 2 3.28775 7.05056 7.99824
875 2 4.23179 7.04637 7.99292
876 2 5.16237 7.04988 7.99348
877 2 6.10465 7.05042 7.99578
878 2 7.05293 7.04855 7.98829
879 2 7.99017 7.04952 7.98384
880 2 8.92723 7.04919 7.98967
881 2 0.473227 7.99273 7.98273
882 2 1.41095 7.98534 7.99167
883 2 2.3495 7.99272 7.98682
884 2 3.2934 7.99136 7.9831
885 2 4.23436 7.9906 7.98934
886 2 5.17539 7.99831 7.99018
887 2 6.11124 7.98912 7.99073
888 2 7.04356 7.98962 7.99373
889 2 7.99038 7.99392 7.99021
890 2 8.93257 7.98995 7.99448
891 2 0.462826 8.92806 7.99416
892 2 1.40986 8.93077 7.98526
893 2 2.35522 8.93042 7.98493
894 2 3.28863 8.92919 7.99107
895 2 4.23032 8.93192 7.98896
896 2 5.16772 8.93 7.99572
897 2 6.1087 8.93242 7.99397
898 2 7.05519 8.92989 7.989
899 2 7.98712 8.93517 7.98838
900 2 8.93001 8.93194 7.99195
901 2 0.468262 0.467373 8.93516
902 2 1.411 0.466306 8.93189
903 2 2.35057 0.472781 8.93288
904 2 3.28693 0.470114 8.92762
905 2 4.23234 0.467102 8.92713
906 2 5.16602 0.466397 8.93259
907 2 6.11593 0.470321 8.93117
908 2 7.05056 0.473549 8.92711
909 2 7.98925 0.473614 8.93342
910 2 8.92726 0.468407 8.93102
911 2 0.466673 1.40864 8.93886
912 2 1.4063 1.40357 8.93251
913 2 2.35262 1.41189 8.93004
914 2 3.28791 1.41378 8.93026
915 2 4.22818 1.40765 8.9337
916 2 5.17268 1.41493 8.93164
917 2 6.11004 1.41602 8.93473
918 2 7.0558 1.40654 8.9337
919 2 7.98731 1.41346 8.93106
920 2 8.93428 1.40873 8.9324
921 2 0.475928 2.35097 8.93107
922 2 1.40967 2.34699 8.92801
923 2 2.35423 2.35129 8.92998
924 2 3.29053 2.35139 8.93359
925 2 4.22965 2.35408 8.9319
926 2 5.17049 2.34901 8.92956
927 2 6.11239 2.35388 8.92634
928 2 7.05157 2.35257 8.93761
929 2 7.99109 2.35151 8.92873
930 2 8.93272 2.35026 8.92868
931 2 0.471299 3.29116 8.92759
932 2 1.41006 3.29055 8.92776
933 2 2.35127 3.28973 8.9318
934 2 3.29516 3.29219 8.93154
935 2 4.23605 3.2861 8.92939
936 2 5.16973 3.28745 8.93224
937 2 6.11051 3.29513 8.92782
938 2 7.04696 3.29077 8.92607
939 2 7.98554 3.29156 8.93067
940 2 8.92824 3.28883 8.93061
941 2 0.471534 4.22673 8.93586
942 2 1.41049 4.22591 8.93265
943 2 2.34966 4.23234 8.92404
944 2 3.29046 4.22664 8.9268
945 2 4.2312 4.22691 8.93576
946 2 5.16262 4.22908 8.93619
947 2 6.11384 4.22881 8.93312
948 2 7.05347 4.23 8.9326
949 2 7.99104 4.23111 8.92652
950 2 8.9296 4.22861 8.9307
951 2 0.466447 5.16791 8.93259
952 2 1.41148 5.16849 8.93016
953 2 2.35078 5.16776 8.92793
954 2 3.28924 5.16311 8.92984
955 2 4.22934 5.16852 8.92717
956 2 5.1721 5.16314 8.93089
957 2 6.11327 5.16814 8.93128
958 2 7.04699 5.16988 8.92903
959 2 7.99035 5.16624 8.93087
960 2 8.93347 5.17093 8.92877
961 2 0.470663 6.11002 8.92948
962 2 1.41153 6.10549 8.92747
963 2 2.34869 6.1047 8.92894
964 2 3.29031 6.10719 8.93242
965 2 4.22548 6.11321 8.93158
966 2 5.16865 6.10727 8.92933
967 2 6.10887 6.11041 8.92358
968 2 7.05493 6.1123 8.92981
969 2 7.99121 6.10837 8.93154
970 2 8.93216 6.11101 8.9343
971 2 0.476911 7.04979 8.9287
972 2 1.41109 7.049 8.92881
973 2 2.35074 7.05216 8.92628
974 2 3.29516 7.05101 8.93509
975 2 4.22277 7.04839 8.931
976 2 5.17245 7.04217 8.92432
977 2 6.11102 7.05007 8.92941
978 2 7.05148 7.04806 8.93073
979 2 7.99573 7.0488 8.92788
980 2 8.92897 7.04999 8.92616
981 2 0.466607 7.99815 8.93112
982 2 1.41413 7.99015 8.92975
983 2 2.34566 7.99842 8.92728
984 2 3.28277 7.98899 8.92919
985 2 4.23134 7.98885 8.92903
986 2 5.16852 7.9915 8.92715
987 2 6.11157 7.99375 8.9327
988 2 7.0503 7.99319 8.93288
989 2 7.9882 7.98468 8.93048
990 2 8.93038 7.98695 8.93475
991 2 0.467938 8.92717 8.93244
992 2 1.41061 8.92898 8.93049
993 2 2.35034 8.92895 8.92949
994 2 3.29051 8.93256 8.92607
995 2 4.22961 8.92946 8.9281
996 2 5.16582 8.93103 8.93631
997 2 6.10983 8.93173 8.9284
998 2 7.0463 8.92939 8.92682
999 2 7.98754 8.93674 8.9326
1000 2 8.9347 8.92978 8.93143
ITEM: TIMESTEP
2
ITEM: NUMBER OF ATOMS
200
ITEM: BOX BOUNDS pp pp pp
0.0000000000000000e+00 9.4000000000000004e+00
0.0000000000000000e+00 9.4000000000000004e+00
0.0000000000000000e+00 9.4000000000000004e+00
ITEM: ATOMS id type x y z
801 2 0.478901 0.469242 7.98692
802 2 1.40205 0.477903 7.98424
803 2 2.33964 0.452955 7.98327
804 2 3.28788 0.470515 7.99123
805 2 4.22323 0.460968 7.98546
806 2 5.16749 0.467055 7.99101
807 2 6.10572 0.46123 7.99101
808 2 7.05488 0.468852 7.99391
809 2 7.98848 0.47164 7.99645
810 2 8.93724 0.469875 7.98305
811 2 0.467125 1.41142 7.9889
812 2 1.41131 1.40953 7.99269
813 2 2.34092 1.41307 7.98851
814 2 3.28549 1.42091 8.00114
815 2 4.23031 1.41601 7.9899
816 2 5.17887 1.41434 7.99287
817 2 6.10328 1.40714 7.98353
818 2 7.05211 1.41655 8.00184
819 2 7.99445 1.40744 7.98438
820 2 8.9291 1.40814 7.99389
821 2 0.476454 2.34227 7.97613
822 2 1.40463 2.34934 7.99914
823 2 2.35041 2.35567 7.98724
824 2 3.29709 2.34086 7.98763
825 2 4.228 2.34989 8.00693
826 2 5.16557 2.34711 7.99944
827 2 6.11157 2.34974 7.98352
828 2 7.04769 2.352 7.99084
829 2 7.98646 2.35969 7.99464
830 2 8.92989 2.35765 7.98869
831 2 0.466637 3.27041 7.99114
832 2 1.40709 3.29479 7.98892
833 2 2.35 3.30651 7.99968
834 2 3.29002 3.27949 7.97903
835 2 4.23114 3.29289 7.99452
836 2 5.16597 3.28162 7.99399
837 2 6.11434 3.30686 7.99912
838 2 7.04863 3.30762 7.99302
839 2 7.99736 3.29215 7.99183
840 2 8.93367 3.29004 7.99518
841 2 0.459107 4.22061 7.9856
842 2 1.4171 4.22762 7.98609
843 2 2.35382 4.23014 7.98857
844 2 3.31014 4.22518 7.98916
845 2 4.22391 4.22065 7.98779
846 2 5.17002 4.22787 7.98565
847 2 6.10592 4.23545 7.98548
848 2 7.03781 4.22392 7.9829
849 2 7.97435 4.21918 7.98848
850 2 8.93934 4.24477 7.98166
851 2 0.479114 5.17878 7.98268
852 2 1.42027 5.16787 7.99281
853 2 2.34765 5.16089 7.98709
854 2 3.30215 5.17795 7.99558
855 2 4.22274 5.17915 7.99739
856 2 5.17449 5.16071 7.99789
857 2 6.10377 5.19081 7.98757
858 2 7.0467 5.16742 7.99647
859 2 7.98565 5.17943 7.98271
860 2 8.93612 5.16518 7.98239
861 2 0.477888 6.12061 7.99686
862 2 1.4102 6.1041 7.99628
863 2 2.35714 6.1193 7.9811
864 2 3.29598 6.11039 7.98526
865 2 4.23826 6.10726 7.9722
866 2 5.17828 6.10193 7.97834
867 2 6.11425 6.10485 7.99536
868 2 7.04929 6.11344 7.99812
869 2 7.99874 6.10863 7.97706
870 2 8.92382 6.10357 7.98941
871 2 0.470298 7.04814 7.99349
872 2 1.41794 7.04731 7.99236
873 2 2.35357 7.04836 7.99428
874 2 3.28551 7.05112 8.00627
875 2 4.23354 7.04275 7.99564
876 2 5.15477 7.04977 7.99673
877 2 6.09931 7.05084 8.00134
878 2 7.05584 7.04711 7.98638
879 2 7.99034 7.04905 7.97748
880 2 8.92447 7.04838 7.98913
881 2 0.476449 7.99544 7.97527
882 2 1.41189 7.98069 7.99313
883 2 2.34901 7.99543 7.98344
884 2 3.2968 7.99272 7.97603
885 2 4.23872 7.99118 7.98847
886 2 5.18078 8.00658 7.99015
887 2 6.11247 7.98825 7.99126
888 2 7.03715 7.98924 7.99724
889 2 7.99075 7.99784 7.99021
890 2 8.93515 7.98991 7.99876
891 2 0.455682 8.92613 7.9981
892 2 1.40972 8.93154 7.98034
893 2 2.36041 8.93083 7.97967
894 2 3.28728 8.92839 7.99192
895 2 4.23062 8.93382 7.98771
896 2 5.16546 8.93002 8.00124
897 2 6.10741 8.93481 7.99772
898 2 7.06035 8.92977 7.98781
899 2 7.98427 8.94033 7.98657
900 2 8.92998 8.93388 7.9937
901 2 0.466527 0.464747 8.9405
902 2 1.41198 0.462609 8.93398
903 2 2.35114 0.475553 8.93595
904 2 3.28389 0.470242 8.92544
905 2 4.23465 0.46421 8.92447
906 2 5.16208 0.462822 8.93537
907 2 6.12183 0.470658 8.93254
908 2 7.05113 0.47707 8.92444
909 2 7.9885 0.477238 8.93703
910 2 8.92452 0.466817 8.93223
911 2 0.463362 1.40728 8.94791
912 2 1.40261 1.39715 8.93522
913 2 2.35521 1.41378 8.93027
914 2 3.28583 1.41754 8.93074
915 2 4.22637 1.40531 8.9376
916 2 5.17534 1.41984 8.93348
917 2 6.1101 1.42203 8.93964
918 2 7.06157 1.4031 8.93761
919 2 7.98465 1.41692 8.9323
920 2 8.93853 1.40746 8.935
921 2 0.481834 2.35193 8.93232
922 2 1.40937 2.34399 8.92624
923 2 2.35844 2.35258 8.93016
924 2 3.29106 2.35279 8.93738
925 2 4.22931 2.35813 8.93402
926 2 5.17099 2.34802 8.92934
927 2 6.11477 2.35778 8.9229
928 2 7.05315 2.35512 8.9454
929 2 7.99218 2.35303 8.92768
930 2 8.93545 2.35051 8.92756
931 2 0.472589 3.2923 8.92539
932 2 1.41012 3.29109 8.92572
933 2 2.35254 3.28947 8.93381
934 2 3.30032 3.29438 8.93326
935 2 4.24209 3.28222 8.92898
936 2 5.16947 3.28491 8.9347
937 2 6.11102 3.30024 8.92586
938 2 7.04393 3.29154 8.92236
939 2 7.98109 3.29312 8.93155
940 2 8.92648 3.28767 8.93143
941 2 0.473064 4.22347 8.94189
942 2 1.41099 4.22183 8.93549
943 2 2.34933 4.23466 8.9183
944 2 3.29092 4.22329 8.92381
945 2 4.23237 4.22383 8.94171
946 2 5.15528 4.22813 8.94257
947 2 6.11766 4.22763 8.93643
948 2 7.05694 4.23 8.93539
949 2 7.99208 4.2322 8.92325
950 2 8.9292 4.22723 8.9316
951 2 0.462923 5.16583 8.93537
952 2 1.41295 5.16697 8.93053
953 2 2.35156 5.16553 8.92606
954 2 3.28849 5.15623 8.92989
955 2 4.22869 5.16705 8.92457
956 2 5.17419 5.15631 8.93199
957 2 6.11652 5.16629 8.93276
958 2 7.04401 5.16976 8.92827
959 2 7.9907 5.1625 8.93193
960 2 8.93691 5.17186 8.92775
961 2 0.471332 6.11003 8.92918
962 2 1.41305 6.101 8.92516
963 2 2.34738 6.09942 8.92808
964 2 3.29061 6.10438 8.93504
965 2 4.22098 6.1164 8.93334
966 2 5.1673 6.10452 8.92885
967 2 6.10776 6.11082 8.91739
968 2 7.05983 6.11458 8.92983
969 2 7.99242 6.10674 8.93328
970 2 8.93432 6.11201 8.9388
971 2 0.483793 7.04959 8.92761
972 2 1.41219 7.048 8.92784
973 2 2.35149 7.05433 8.92279
974 2 3.30028 7.05202 8.94039
975 2 4.21559 7.04678 8.93221
976 2 5.17488 7.03438 8.91887
977 2 6.11204 7.05016 8.92905
978 2 7.05298 7.04614 8.93165
979 2 8.00143 7.04759 8.92596
980 2 8.92798 7.04997 8.92254
981 2 0.463237 8.00626 8.93243
982 2 1.41822 7.9903 8.92972
983 2 2.34134 8.00681 8.92476
984 2 3.27556 7.98799 8.92857
985 2 4.23266 7.98769 8.92827
986 2 5.16706 7.99298 8.9245
987 2 6.11312 7.99748 8.93561
988 2 7.05059 7.99635 8.93597
989 2 7.9864 7.9794 8.93115
990 2 8.93074 7.98392 8.93971
991 2 0.4659 8.92438 8.93509
992 2 1.41121 8.92795 8.93117
993 2 2.35068 8.92793 8.92918
994 2 3.29102 8.93511 8.92237
995 2 4.22922 8.92891 8.92641
996 2 5.16165 8.93206 8.94281
997 2 6.10964 8.93346 8.92702
998 2 7.04261 8.9288 8.92384
999 2 7.9851 8.94344 8.9354
1000 2 8.93938 8.92955 8.93307
ITEM: TIMESTEP
3
ITEM: NUMBER OF ATOMS
200
ITEM: BOX BOUNDS pp pp pp
0.0000000000000000e+00 9.4000000000000004e+00
0.0000000000000000e+00 9.4000000000000004e+00
0.0000000000000000e+00 9.4000000000000004e+00
ITEM: ATOMS id type x y z
801 2 0.483293 0.468856 7.98511
802 2 1.39812 0.481816 7.98108
803 2 2.33448 0.444538 7.97963
804 2 3.28679 0.470798 7.99152
805 2 4.21987 0.456529 7.9829
806 2 5.16621 0.46561 7.99123
807 2 6.10361 0.456904 7.99121
808 2 7.05727 0.468298 7.99552
809 2 7.98777 0.472475 7.99937
810 2 8.94084 0.46982 7.97931
811 2 0.465702 1.41209 7.98809
812 2 1.41193 1.40933 7.99375
813 2 2.33643 1.41457 7.98747
814 2 3.28323 1.42627 8.00638
815 2 4.23047 1.41896 7.98956
816 2 5.18324 1.41648 7.99399
817 2 6.09999 1.4057 7.98003
818 2 7.05315 1.41979 8.00743
819 2 7.99666 1.4062 7.98129
820 2 8.92866 1.40724 7.99554
821 2 0.479626 2.33838 7.96891
822 2 1.40199 2.34902 8.00335
823 2 2.35062 2.35853 7.98556
824 2 3.3006 2.33635 7.98617
825 2 4.22702 2.34986 8.01504
826 2 5.16338 2.34566 8.00381
827 2 6.11233 2.34964 7.97999
828 2 7.04653 2.35306 7.99098
829 2 7.9847 2.36448 7.99663
830 2 8.92985 2.36143 7.98775
831 2 0.46498 3.26067 7.99137
832 2 1.40565 3.29715 7.98807
833 2 2.34998 3.31469 8.00419
834 2 3.29003 3.27425 7.97326
835 2 4.23169 3.2943 7.99647
836 2 5.16399 3.27746 7.9957
837 2 6.11647 3.31522 8.00331
838 2 7.04799 3.31631 7.99419
839 2 8.00101 3.29321 7.99244
840 2 8.9355 3.29013 7.99745
841 2 0.453774 4.21593 7.98314
842 2 1.42059 4.22645 7.98388
843 2 2.35578 4.23024 7.98751
844 2 3.32008 4.22279 7.98842
845 2 4.22099 4.21606 7.98643
846 2 5.17 4.22677 7.98322
847 2 6.10386 4.23825 7.98295
848 2 7.03172 4.22097 7.9791
849 2 7.96658 4.21385 7.98739
850 2 8.94388 4.25205 7.97721
851 2 0.483666 5.18314 7.97877
852 2 1.42536 5.16679 7.99389
853 2 2.34655 5.1564 7.98534
854 2 3.30812 5.18187 7.99803
855 2 4.21921 5.18364 8.00073
856 2 5.17667 5.15608 8.0015
857 2 6.10069 5.20109 7.98605
858 2 7.04504 5.16613 7.99936
859 2 7.98351 5.18407 7.9788
860 2 8.93917 5.16283 7.97828
861 2 0.48177 6.12587 7.99998
862 2 1.41034 6.10117 7.99907
863 2 2.36069 6.12388 7.97636
864 2 3.29898 6.11062 7.98261
865 2 4.2424 6.10592 7.96306
866 2 5.18241 6.09791 7.97228
867 2 6.11638 6.10239 7.99766
868 2 7.04897 6.11513 8.00186
869 2 8.00304 6.10799 7.97033
870 2 8.92082 6.10037 7.98884
871 2 0.470447 7.04728 7.99489
872 2 1.42188 7.04593 7.99322
873 2 2.35534 7.0476 7.99608
874 2 3.28331 7.05168 8.01408
875 2 4.23523 7.03916 7.99815
876 2 5.14723 7.04967 7.99973
877 2 6.09399 7.05123 8.00665
878 2 7.05871 7.04569 7.98428
879 2 7.9905 7.0486 7.97096
880 2 8.92173 7.04756 7.98839
881 2 0.479661 7.99812 7.96765
882 2 1.41285 7.97608 7.99438
883 2 2.34854 7.99811 7.97989
884 2 3.30018 7.99406 7.96882
885 2 4.24309 7.99176 7.98739
886 2 5.18615 8.01478 7.98989
887 2 6.11368 7.98741 7.99161
888 2 7.03081 7.98885 8.00054
889 2 7.9911 8.00174 7.99
890 2 8.93772 7.98987 8.00284
891 2 0.4486 8.92423 8.00183
892 2 1.40957 8.93231 7.97525
893 2 2.36555 8.93119 7.97424
894 2 3.28597 8.9276 7.99254
895 2 4.23091 8.93568 7.98627
896 2 5.1632 8.93007 8.00656
897 2 6.10615 8.93714 8.00124
898 2 7.06545 8.92966 7.98642
899 2 7.98148 8.94546 7.98457
900 2 8.92991 8.93579 7.99524
901 2 0.464796 0.462124 8.94601
902 2 1.41296 0.458908 8.93624
903 2 2.35169 0.478309 8.93919
904 2 3.28088 0.470398 8.92349
905 2 4.23691 0.46133 8.92201
906 2 5.1582 0.459302 8.93832
907 2 6.12767 0.471025 8.93411
908 2 7.05173 0.480535 8.92199
909 2 7.98775 0.480884 8.94083
910 2 8.92179 0.465235 8.93361
911 2 0.460087 1.40593 8.95711
912 2 1.39895 1.39076 8.93812
913 2 2.35776 1.41567 8.93069
914 2 3.28377 1.42129 8.93145
915 2 4.22457 1.403 8.94167
916 2 5.17797 1.42468 8.93551
917 2 6.11019 1.42801 8.94472
918 2 7.06727 1.39973 8.94173
919 2 7.98207 1.42037 8.93373
920 2 8.94271 1.40619 8.93777
921 2 0.487694 2.35289 8.93376
922 2 1.40913 2.34098 8.92472
923 2 2.36262 2.35386 8.93053
924 2 3.29161 2.3542 8.94134
925 2 4.22898 2.36211 8.93638
926 2 5.17149 2.34706 8.92936
927 2 6.11714 2.36169 8.91965
928 2 7.05472 2.35764 8.95337
929 2 7.99329 2.35455 8.92686
930 2 8.93819 2.35074 8.92664
931 2 0.47386 3.29343 8.92342
932 2 1.41019 3.29159 8.92389
933 2 2.35383 3.28924 8.93605
934 2 3.30547 3.29653 8.93515
935 2 4.2481 3.27838 8.92878
936 2 5.16926 3.28238 8.93736
937 2 6.1115 3.30531 8.92413
938 2 7.0409 3.29232 8.91889
939 2 7.97665 3.29468 8.93264
940 2 8.92471 3.2865 8.93247
941 2 0.474585 4.22024 8.94809
942 2 1.41148 4.21778 8.93849
943 2 2.349 4.23695 8.9128
944 2 3.29138 4.21995 8.92102
945 2 4.23349 4.22074 8.94782
946 2 5.14803 4.22715 8.9491
947 2 6.12143 4.22647 8.93991
948 2 7.0604 4.23 8.93835
949 2 7.99314 4.23327 8.92021
950 2 8.92882 4.22585 8.93269
951 2 0.459458 5.16374 8.93831
952 2 1.4144 5.16542 8.9311
953 2 2.35233 5.16331 8.92441
954 2 3.28774 5.14938 8.93017
955 2 4.22805 5.16559 8.92221
956 2 5.17629 5.14952 8.93331
957 2 6.11974 5.16446 8.93443
958 2 7.04107 5.16966 8.92773
959 2 7.99104 5.15879 8.93314
960 2 8.9403 5.17278 8.92691
961 2 0.47201 6.11004 8.9291
962 2 1.41455 6.09653 8.92308
963 2 2.34609 6.09419 8.92738
964 2 3.29086 6.10157 8.93783
965 2 4.21652 6.11955 8.93528
966 2 5.16593 6.10172 8.92856
967 2 6.10667 6.11122 8.91145
968 2 7.06469 6.11684 8.93007
969 2 7.99366 6.1051 8.9352
970 2 8.93647 6.11301 8.94348
971 2 0.490615 7.04944 8.92675
972 2 1.41331 7.04699 8.92709
973 2 2.35226 7.05649 8.91954
974 2 3.30531 7.05299 8.94589
975 2 4.20852 7.04521 8.9336
976 2 5.17726 7.02664 8.91367
977 2 6.11308 7.05026 8.92893
978 2 7.05449 7.04426 8.93276
979 2 8.00709 7.04636 8.92421
980 2 8.92706 7.04995 8.91914
981 2 0.459914 8.01427 8.93391
982 2 1.42223 7.99043 8.92988
983 2 2.33704 8.01512 8.92244
984 2 3.26839 7.98701 8.92812
985 2 4.23393 7.98654 8.92771
986 2 5.16562 7.99442 8.92208
987 2 6.11466 8.00119 8.93871
988 2 7.05089 7.99948 8.93926
989 2 7.98463 7.97418 8.93201
990 2 8.93108 7.98091 8.94485
991 2 0.463913 8.92165 8.93792
992 2 1.4118 8.92691 8.93204
993 2 2.35102 8.92698 8.92905
994 2 3.29153 8.93764 8.91888
995 2 4.22882 8.92834 8.92493
996 2 5.15753 8.93306 8.9495
997 2 6.10941 8.93519 8.92588
998 2 7.03894 8.92825 8.92106
999 2 7.98267 8.95009 8.9384
1000 2 8.94399 8.9293 8.93491
ITEM: TIMESTEP
4
ITEM: NUMBER OF ATOMS
200
ITEM: BOX BOUNDS pp pp pp
0.0000000000000000e+00 9.4000000000000004e+00
0.0000000000000000e+00 9.4000000000000004e+00
0.0000000000000000e+00 9.4000000000000004e+00
ITEM: ATOMS id type x y z
801 2 0.487609 0.46846 7.98313
802 2 1.39426 0.485683 7.97777
803 2 2.32934 0.436247 7.97583
804 2 3.28565 0.47111 7.99157
805 2 4.21653 0.452181 7.98014
806 2 5.16491 0.464198 7.99126
807 2 6.10153 0.45265 7.99121
808 2 7.05961 0.467766 7.99689
809 2 7.9871 0.473328 8.00211
810 2 8.94443 0.469774 7.97542
811 2 0.464298 1.41272 7.98713
812 2 1.41249 1.40915 7.99462
813 2 2.33199 1.41601 7.98624
814 2 3.28096 1.43151 8.01139
815 2 4.23064 1.42184 7.98905
816 2 5.18751 1.41856 7.99491
817 2 6.0968 1.40424 7.9764
818 2 7.05416 1.423 8.01281
819 2 7.99884 1.40501 7.97801
820 2 8.92824 1.40637 7.997
821 2 0.482732 2.33449 7.96153
822 2 1.39941 2.34873 8.0073
823 2 2.35084 2.36142 7.9837
824 2 3.30406 2.33192 7.98453
825 2 4.22606 2.34988 8.0229
826 2 5.16122 2.34423 8.00794
827 2 6.11304 2.34958 7.97629
828 2 7.04539 2.35418 7.99095
829 2 7.98296 2.36921 7.99839
830 2 8.92981 2.36515 7.98665
831 2 0.463352 3.25099 7.99137
832 2 1.4042 3.29947 7.98703
833 2 2.34996 3.32277 8.00849
834 2 3.29004 3.26902 7.96733
835 2 4.23222 3.29565 7.99824
836 2 5.16205 3.27333 7.99723
837 2 6.11855 3.32348 8.00725
838 2 7.04741 3.32485 7.99514
839 2 8.00462 3.29424 7.99284
840 2 8.93732 3.2903 7.99949
841 2 0.44858 4.21126 7.98054
842 2 1.42404 4.2253 7.98153
843 2 2.3578 4.23037 7.9862
844 2 3.32984 4.22042 7.98746
845 2 4.21822 4.21157 7.98495
846 2 5.16994 4.2256 7.98064
847 2 6.10178 4.24115 7.98029
848 2 7.02565 4.21814 7.97516
849 2 7.95887 4.20863 7.98608
850 2 8.94826 4.25921 7.97261
851 2 0.488214 5.18746 7.97472
852 2 1.43041 5.1657 7.99475
853 2 2.34555 5.15201 7.98342
854 2 3.31396 5.18573 8.00025
855 2 4.2158 5.18804 8.00382
856 2 5.17878 5.15148 8.00487
857 2 6.09766 5.21121 7.98435
858 2 7.04336 5.16484 8.002
859 2 7.98141 5.18862 7.97473
860 2 8.94219 5.16057 7.974
861 2 0.485581 6.13108 8.00289
862 2 1.41052 6.09826 8.00161
863 2 2.36422 6.12836 7.97143
864 2 3.302 6.11088 7.97979
865 2 4.24653 6.1046 7.95382
866 2 5.18653 6.09391 7.96614
867 2 6.11851 6.10007 7.99966
868 2 7.0487 6.11677 8.00538
869 2 8.00724 6.1074 7.96345
870 2 8.91793 6.09719 7.98812
871 2 0.470595 7.04649 7.99606
872 2 1.42579 7.04451 7.99385
873 2 2.3571 7.04691 7.99764
874 2 3.28115 7.05224 8.02167
875 2 4.2368 7.0356 8.00046
876 2 5.13977 7.0496 8.00243
877 2 6.08869 7.05159 8.01169
878 2 7.06151 7.0443 7.982
879 2 7.99066 7.04817 7.9643
880 2 8.91904 7.04672 7.98745
881 2 0.482855 8.00074 7.95987
882 2 1.41381 7.97152 7.99542
883 2 2.34812 8.00076 7.97618
884 2 3.30356 7.99538 7.96153
885 2 4.24746 7.99232 7.9861
886 2 5.19148 8.02286 7.9894
887 2 6.11486 7.98659 7.99178
888 2 7.02456 7.98846 8.00364
889 2 7.99143 8.00563 7.98961
890 2 8.94028 7.98983 8.00673
891 2 0.44161 8.92237 8.00535
892 2 1.40942 8.93306 7.97004
893 2 2.37061 8.93148 7.96866
894 2 3.28472 8.92682 7.99291
895 2 4.23117 8.93749 7.98463
896 2 5.16097 8.93019 8.0117
897 2 6.10492 8.9394 8.00451
898 2 7.07043 8.92953 7.98485
899 2 7.97877 8.95056 7.98238
900 2 8.92975 8.93768 7.99657
901 2 0.463072 0.459503 8.95166
902 2 1.41392 0.455202 8.93865
903 2 2.35222 0.481039 8.94257
904 2 3.27793 0.470595 8.92175
905 2 4.23908 0.458468 8.91974
906 2 5.15443 0.455862 8.94142
907 2 6.13341 0.471433 8.93589
908 2 7.05236 0.483915 8.91978
909 2 7.98698 0.484561 8.9448
910 2 8.91908 0.463662 8.93513
911 2 0.456872 1.4046 8.96644
912 2 1.39532 1.3844 8.9412
913 2 2.36023 1.41757 8.93128
914 2 3.28174 1.42499 8.93238
915 2 4.2228 1.40071 8.9459
916 2 5.18055 1.42942 8.93772
917 2 6.11034 1.43394 8.94995
918 2 7.07288 1.39643 8.94607
919 2 7.9796 1.42381 8.93531
920 2 8.94678 1.40493 8.9407
921 2 0.493485 2.35384 8.93535
922 2 1.40897 2.33797 8.92346
923 2 2.36674 2.35513 8.93108
924 2 3.29218 2.35563 8.94548
925 2 4.22866 2.366 8.93899
926 2 5.172 2.34614 8.92962
927 2 6.1195 2.36563 8.91662
928 2 7.0563 2.3601 8.96151
929 2 7.99442 2.35608 8.92627
930 2 8.94094 2.35095 8.9259
931 2 0.475104 3.29452 8.92167
932 2 1.41029 3.29203 8.92225
933 2 2.35513 3.28903 8.93851
934 2 3.31061 3.29864 8.93718
935 2 4.25405 3.27462 8.92879
936 2 5.1691 3.27986 8.94024
937 2 6.11194 3.31032 8.92264
938 2 7.03788 3.2931 8.91567
939 2 7.97223 3.29624 8.93394
940 2 8.92295 3.28535 8.93373
941 2 0.476094 4.21706 8.9544
942 2 1.41198 4.21378 8.94161
943 2 2.34868 4.23919 8.90753
944 2 3.29183 4.21662 8.91844
945 2 4.23452 4.21766 8.95408
946 2 5.14091 4.22611 8.95575
947 2 6.12514 4.22536 8.94354
948 2 7.06386 4.23 8.94145
949 2 7.9942 4.23431 8.9174
950 2 8.92846 4.22449 8.93395
951 2 0.456082 5.16166 8.9414
952 2 1.41581 5.16383 8.93186
953 2 2.35309 5.1611 8.92297
954 2 3.287 5.14257 8.93067
955 2 4.22743 5.16414 8.92011
956 2 5.17838 5.14281 8.93483
957 2 6.1229 5.16264 8.93627
958 2 7.0382 5.16959 8.92741
959 2 7.99138 5.15512 8.9345
960 2 8.94361 5.17369 8.92626
961 2 0.472703 6.11002 8.92925
962 2 1.41602 6.09211 8.92126
963 2 2.34484 6.08901 8.92682
964 2 3.29107 6.09876 8.9408
965 2 4.21212 6.12264 8.93736
966 2 5.16454 6.09885 8.92843
967 2 6.10561 6.1116 8.90579
968 2 7.06948 6.11904 8.93055
969 2 7.99494 6.10345 8.93729
970 2 8.9386 6.11401 8.94834
971 2 0.497349 7.04933 8.92613
972 2 1.41449 7.04596 8.92655
973 2 2.35307 7.05865 8.91656
974 2 3.3102 7.05393 8.95158
975 2 4.20162 7.04368 8.93516
976 2 5.1796 7.01898 8.90875
977 2 6.11413 7.0504 8.92909
978 2 7.05602 7.04245 8.93405
979 2 8.01266 7.04509 8.92264
980 2 8.92624 7.04991 8.91597
981 2 0.456658 8.02213 8.93554
982 2 1.42613 7.99054 8.93026
983 2 2.33279 8.02332 8.92029
984 2 3.26129 7.98606 8.92783
985 2 4.23514 7.98538 8.92734
986 2 5.16422 7.99581 8.91987
987 2 6.11617 8.00486 8.942
988 2 7.05118 8.00255 8.94274
989 2 7.98288 7.96904 8.93305
990 2 8.93136 7.97793 8.95015
991 2 0.462004 8.91903 8.94094
992 2 1.41237 8.92586 8.93307
993 2 2.35137 8.92614 8.92909
994 2 3.29203 8.94012 8.91564
995 2 4.22839 8.92775 8.92367
996 2 5.15345 8.93403 8.95635
997 2 6.10912 8.93693 8.925
998 2 7.0353 8.92775 8.91847
999 2 7.98028 8.95666 8.94159
1000 2 8.94852 8.92901 8.93695
ITEM: TIMESTEP
5
ITEM: NUMBER OF ATOMS
200
ITEM: BOX BOUNDS pp pp pp
0.0000000000000000e+00 9.4000000000000004e+00
0.0000000000000000e+00 9.4000000000000004e+00
0.0000000000000000e+00 9.4000000000000004e+00
ITEM: ATOMS id type x y z
801 2 0.491815 0.46805 7.98101
802 2 1.3905 0.489491 7.97432
803 2 2.32424 0.428126 7.9719
804 2 3.28445 0.471458 7.99139
805 2 4.21324 0.447954 7.97721
806 2 5.16358 0.462828 7.99113
807 2 6.09949 0.448497 7.99103
808 2 7.06189 0.467262 7.998
809 2 7.98651 0.474207 8.00467
810 2 8.94799 0.469742 7.97142
811 2 0.462916 1.41329 7.98604
812 2 1.41297 1.40902 7.99533
813 2 2.32764 1.4174 7.98484
814 2 3.27869 1.43657 8.01618
815 2 4.23083 1.42464 7.98838
816 2 5.19166 1.42058 7.99563
817 2 6.09375 1.40277 7.97264
818 2 7.05515 1.42615 8.01796
819 2 8.00099 1.40389 7.97458
820 2 8.92782 1.40555 7.99828
821 2 0.485749 2.33056 7.95398
822 2 1.39692 2.34847 8.01098
823 2 2.35106 2.36434 7.98166
824 2 3.30745 2.32761 7.98275
825 2 4.22514 2.34994 8.03048
826 2 5.15908 2.3428 8.01182
827 2 6.11371 2.34957 7.97245
828 2 7.04426 2.35538 7.99077
829 2 7.98123 2.37386 7.99992
830 2 8.92979 2.3688 7.98542
831 2 0.461763 3.24141 7.99114
832 2 1.40277 3.30174 7.98582
833 2 2.34992 3.33073 8.01257
834 2 3.29005 3.26381 7.96124
835 2 4.23272 3.29692 7.99983
836 2 5.16018 3.26925 7.99861
837 2 6.12057 3.33163 8.01089
838 2 7.04691 3.33317 7.99585
839 2 8.00819 3.29523 7.99304
840 2 8.93912 3.29056 8.00131
841 2 0.443577 4.2066 7.97781
842 2 1.42742 4.2242 7.9791
843 2 2.3599 4.23056 7.98463
844 2 3.33934 4.21807 7.98629
845 2 4.21567 4.2072 7.98337
846 2 5.16984 4.22437 7.97795
847 2 6.09968 4.24418 7.9775
848 2 7.01958 4.2155 7.97111
849 2 7.95124 4.20353 7.98454
850 2 8.95244 4.26619 7.96787
851 2 0.492754 5.19175 7.97057
852 2 1.43538 5.16459 7.99538
853 2 2.34467 5.14771 7.98135
854 2 3.31961 5.1895 8.00222
855 2 4.21256 5.19231 8.00664
856 2 5.18078 5.14692 8.00801
857 2 6.09468 5.22109 7.98245
858 2 7.04166 5.16356 8.00439
859 2 7.97934 5.19304 7.97052
860 2 8.9452 5.15843 7.96955
861 2 0.489302 6.13622 8.00559
862 2 1.41078 6.09537 8.00389
863 2 2.36771 6.13274 7.96634
864 2 3.30503 6.1112 7.97683
865 2 4.25067 6.10334 7.94452
866 2 5.19065 6.08994 7.96001
867 2 6.12065 6.09798 8.00135
868 2 7.04849 6.11836 8.00868
869 2 8.01132 6.10688 7.95645
870 2 8.91518 6.09404 7.98727
871 2 0.470741 7.0458 7.99698
872 2 1.42964 7.04304 7.99427
873 2 2.35884 7.04631 7.99896
874 2 3.27906 7.05282 8.02904
875 2 4.23821 7.03208 8.00257
876 2 5.13244 7.04956 8.00481
877 2 6.08343 7.05192 8.01646
878 2 7.06423 7.04295 7.97955
879 2 7.99082 7.04778 7.95754
880 2 8.91639 7.04588 7.98632
881 2 0.48603 8.00329 7.95196
882 2 1.41479 7.96703 7.99626
883 2 2.34773 8.00335 7.97236
884 2 3.30691 7.99668 7.95425
885 2 4.25184 7.99286 7.98461
886 2 5.19679 8.0308 7.98867
887 2 6.11599 7.9858 7.9918
888 2 7.01845 7.98807 8.00652
889 2 7.99173 8.00951 7.98902
890 2 8.94285 7.9898 8.01043
891 2 0.434745 8.92058 8.00867
892 2 1.40926 8.9338 7.96475
893 2 2.37556 8.93168 7.96297
894 2 3.28357 8.92607 7.99303
895 2 4.23139 8.9392 7.98283
896 2 5.15877 8.9304 8.01665
897 2 6.10372 8.94154 8.00752
898 2 7.07528 8.92939 7.98314
899 2 7.97618 8.95561 7.98004
900 2 8.92947 8.93954 7.9977
901 2 0.461356 0.456888 8.95741
902 2 1.41486 0.451489 8.94119
903 2 2.35271 0.48374 8.94607
904 2 3.27506 0.470845 8.92023
905 2 4.24115 0.455631 8.91765
906 2 5.1508 0.452527 8.94463
907 2 6.13904 0.471894 8.93785
908 2 7.05305 0.48718 8.9178
909 2 7.98621 0.488281 8.9489
910 2 8.91639 0.462104 8.93676
911 2 0.45374 1.40327 8.97584
912 2 1.39174 1.37809 8.94444
913 2 2.36262 1.41947 8.93202
914 2 3.27977 1.42864 8.93354
915 2 4.22106 1.39846 8.95026
916 2 5.18307 1.43405 8.94009
917 2 6.11056 1.43982 8.95529
918 2 7.07834 1.39326 8.95062
919 2 7.97729 1.42724 8.93701
920 2 8.95072 1.40367 8.94374
921 2 0.49918 2.35476 8.9371
922 2 1.40892 2.33495 8.92249
923 2 2.37079 2.35639 8.93181
924 2 3.29278 2.3571 8.94978
925 2 4.22835 2.36974 8.94186
926 2 5.17251 2.34526 8.93013
927 2 6.12182 2.36961 8.91377
928 2 7.05789 2.3625 8.96978
929 2 7.99557 2.35764 8.92592
930 2 8.94371 2.35112 8.92533
931 2 0.476312 3.29558 8.92015
932 2 1.4104 3.29239 8.92078