ITEM: TIMESTEP
1
ITEM: NUMBER OF ATOMS
200
ITEM: BOX BOUNDS pp pp pp
0.0000000000000000e+00 9.4000000000000004e+00
0.0000000000000000e+00 9.4000000000000004e+00
0.0000000000000000e+00 9.4000000000000004e+00
ITEM: ATOMS id type x y z
801 2 0.474927 0.469583 7.98842
802 2 1.4056 0.474372 7.98693
803 2 2.34427 0.460565 7.9864
804 2 3.28884 0.470278 7.99081
805 2 4.22626 0.464996 7.98762
806 2 5.16862 0.468368 7.99068
807 2 6.10763 0.465145 7.99068
808 2 7.0527 0.469361 7.99229
809 2 7.98915 0.470903 7.99368
810 2 8.934 0.469929 7.98628
811 2 0.468409 1.41079 7.9895
812 2 1.41073 1.40974 7.99161
813 2 2.34498 1.41171 7.9893
814 2 3.28751 1.41605 7.99628
815 2 4.23017 1.41333 7.99006
816 2 5.17491 1.41241 7.99171
817 2 6.10627 1.40842 7.98654
818 2 7.05117 1.41362 7.99667
819 2 7.99246 1.40858 7.98702
820 2 8.9295 1.40896 7.99227
821 2 0.473576 2.34573 7.98246
822 2 1.40702 2.34963 7.99518
823 2 2.35023 2.35312 7.9886
824 2 3.29393 2.34494 7.98881
825 2 4.22889 2.34993 7.99948
826 2 5.16755 2.3484 7.99534
827 2 6.11088 2.34985 7.98655
828 2 7.04872 2.35109 7.99058
829 2 7.98804 2.35536 7.99269
830 2 8.92994 2.35423 7.9894
831 2 0.468138 3.27917 7.99076
832 2 1.40839 3.29265 7.98953
833 2 2.35 3.29913 7.99547
834 2 3.29001 3.28419 7.98406
835 2 4.23063 3.29161 7.99262
836 2 5.16776 3.28537 7.99232
837 2 6.1124 3.29933 7.99517
838 2 7.04923 3.29975 7.9918
839 2 7.99407 3.29119 7.99114
840 2 8.93203 3.29001 7.99299
841 2 0.463961 4.22481 7.98768
842 2 1.41393 4.22868 7.98795
843 2 2.3521 4.23007 7.98934
844 2 3.30115 4.22733 7.98967
845 2 4.22662 4.22482 7.98889
846 2 5.17002 4.22884 7.98771
847 2 6.10775 4.23299 7.98762
848 2 7.04327 4.22662 7.98619
849 2 7.98134 4.22401 7.98929
850 2 8.93519 4.23818 7.98551
851 2 0.475033 5.17486 7.98607
852 2 1.41568 5.16883 7.99168
853 2 2.34869 5.16495 7.98851
854 2 3.29673 5.1744 7.99321
855 2 4.22597 5.17507 7.99421
856 2 5.1725 5.16486 7.99449
857 2 6.10655 5.18152 7.98878
858 2 7.04818 5.16857 7.9937
859 2 7.98759 5.17523 7.98609
860 2 8.93338 5.16732 7.98592
861 2 0.47437 6.11587 7.99392
862 2 1.4101 6.10674 7.9936
863 2 2.35395 6.11515 7.98521
864 2 3.2933 6.11021 7.9875
865 2 4.23456 6.10848 7.98028
866 2 5.17457 6.10554 7.98367
867 2 6.11235 6.10713 7.9931
868 2 7.0496 6.11191 7.99461
869 2 7.99484 6.10924 7.98297
870 2 8.92657 6.10645 7.98979
871 2 0.470165 7.04896 7.99206
872 2 1.41439 7.04852 7.99143
873 2 2.35197 7.04908 7.99249
874 2 3.28751 7.05062 7.99911
875 2 4.23198 7.04599 7.99324
876 2 5.16158 7.04987 7.99386
877 2 6.10409 7.05047 7.99639
878 2 7.05324 7.0484 7.98813
879 2 7.99019 7.04947 7.9832
880 2 8.92694 7.04911 7.98964
881 2 0.473564 7.99302 7.98198
882 2 1.41104 7.98485 7.99186
883 2 2.34945 7.99301 7.9865
884 2 3.29376 7.99151 7.9824
885 2 4.23482 7.99066 7.98928
886 2 5.17596 7.99917 7.99021
887 2 6.11137 7.98903 7.99082
888 2 7.04289 7.98958 7.99413
889 2 7.99042 7.99433 7.99024
890 2 8.93284 7.98995 7.99496
891 2 0.462078 8.92785 7.9946
892 2 1.40985 8.93085 7.98478
893 2 2.35576 8.93047 7.98441
894 2 3.28848 8.92911 7.99119
895 2 4.23035 8.93212 7.98886
896 2 5.16749 8.93 7.99633
897 2 6.10857 8.93267 7.9944
898 2 7.05573 8.92988 7.98891
899 2 7.98682 8.93571 7.98823
900 2 8.93001 8.93214 7.99217
901 2 0.468081 0.467099 8.93569
902 2 1.4111 0.46592 8.93208
903 2 2.35063 0.473071 8.93317
904 2 3.28661 0.470126 8.92736
905 2 4.23258 0.4668 8.92682
906 2 5.1656 0.466021 8.93285
907 2 6.11655 0.470355 8.93128
908 2 7.05062 0.473919 8.9268
909 2 7.98917 0.473991 8.93376
910 2 8.92697 0.468241 8.93112
911 2 0.466326 1.4085 8.93978
912 2 1.40591 1.4029 8.93276
913 2 2.35289 1.41209 8.93003
914 2 3.28769 1.41417 8.93028
915 2 4.22799 1.40741 8.93408
916 2 5.17296 1.41545 8.9318
917 2 6.11004 1.41665 8.93521
918 2 7.05641 1.40618 8.93407
919 2 7.98703 1.41382 8.93115
920 2 8.93473 1.40859 8.93264
921 2 0.476546 2.35107 8.93117
922 2 1.40964 2.34668 8.92779
923 2 2.35467 2.35143 8.92997
924 2 3.29058 2.35154 8.93395
925 2 4.22962 2.35451 8.93209
926 2 5.17055 2.3489 8.92951
927 2 6.11264 2.35429 8.92595
928 2 7.05174 2.35284 8.93839
929 2 7.9912 2.35167 8.92859
930 2 8.93301 2.35029 8.92853
931 2 0.471435 3.29128 8.92733
932 2 1.41006 3.29061 8.92751
933 2 2.3514 3.2897 8.93198
934 2 3.2957 3.29242 8.93169
935 2 4.23669 3.28569 8.92931
936 2 5.1697 3.28718 8.93247
937 2 6.11057 3.29566 8.92759
938 2 7.04665 3.29085 8.92565
939 2 7.98507 3.29172 8.93073
940 2 8.92806 3.28871 8.93066
941 2 0.471694 4.22639 8.93646
942 2 1.41054 4.22548 8.93292
943 2 2.34963 4.23258 8.92341
944 2 3.29051 4.22629 8.92645
945 2 4.23132 4.22659 8.93635
946 2 5.16185 4.22898 8.93683
947 2 6.11424 4.22868 8.93343
948 2 7.05383 4.23 8.93286
949 2 7.99115 4.23122 8.92614
950 2 8.92955 4.22847 8.93077
951 2 0.466076 5.1677 8.93285
952 2 1.41164 5.16834 8.93017
953 2 2.35086 5.16753 8.9277
954 2 3.28916 5.16239 8.92981
955 2 4.22927 5.16837 8.92687
956 2 5.17232 5.16243 8.93097
957 2 6.11361 5.16795 8.93141
958 2 7.04668 5.16987 8.92892
959 2 7.99039 5.16585 8.93095
960 2 8.93383 5.17103 8.92863
961 2 0.470733 6.11002 8.92942
962 2 1.41169 6.10502 8.92719
963 2 2.34855 6.10415 8.92882
964 2 3.29034 6.1069 8.93266
965 2 4.22501 6.11354 8.93173
966 2 5.16851 6.10699 8.92925
967 2 6.10876 6.11046 8.9229
968 2 7.05544 6.11254 8.92978
969 2 7.99133 6.1082 8.93169
970 2 8.93239 6.11111 8.93474
971 2 0.477632 7.04976 8.92855
972 2 1.4112 7.0489 8.92868
973 2 2.35081 7.05239 8.92589
974 2 3.2957 7.05112 8.93561
975 2 4.22201 7.04822 8.9311
976 2 5.17271 7.04136 8.92372
977 2 6.11113 7.05008 8.92934
978 2 7.05164 7.04786 8.93079
979 2 7.99633 7.04868 8.92765
980 2 8.92887 7.04999 8.92575
981 2 0.466253 7.999 8.93122
982 2 1.41456 7.99017 8.92972
983 2 2.34521 7.9993 8.92699
984 2 3.28202 7.98888 8.92909
985 2 4.23148 7.98873 8.92892
986 2 5.16837 7.99166 8.92684
987 2 6.11173 7.99414 8.93298
988 2 7.05033 7.99352 8.93317
989 2 7.98801 7.98413 8.93051
990 2 8.93042 7.98664 8.93524
991 2 0.467723 8.92688 8.93269
992 2 1.41067 8.92887 8.93053
993 2 2.35037 8.92884 8.92943
994 2 3.29057 8.93283 8.92565
995 2 4.22957 8.9294 8.92789
996 2 5.16538 8.93114 8.93695
997 2 6.10981 8.93191 8.92822
998 2 7.04592 8.92933 8.92647
999 2 7.98729 8.93744 8.93286
1000 2 8.93519 8.92976 8.93157
ITEM: TIMESTEP
2
ITEM: NUMBER OF ATOMS
200
ITEM: BOX BOUNDS pp pp pp
0.0000000000000000e+00 9.4000000000000004e+00
0.0000000000000000e+00 9.4000000000000004e+00
0.0000000000000000e+00 9.4000000000000004e+00
ITEM: ATOMS id type x y z
801 2 0.479829 0.469163 7.98664
802 2 1.40122 0.478727 7.98368
803 2 2.33856 0.451177 7.98261
804 2 3.28766 0.470569 7.9914
805 2 4.22252 0.460026 7.98503
806 2 5.16722 0.466748 7.99116
807 2 6.10527 0.460315 7.99116
808 2 7.05539 0.468732 7.99436
809 2 7.98832 0.471811 7.99716
810 2 8.93799 0.469862 7.98237
811 2 0.466825 1.41156 7.98882
812 2 1.41145 1.40948 7.99302
813 2 2.33998 1.4134 7.98839
814 2 3.28502 1.42205 8.00234
815 2 4.23034 1.41663 7.98993
816 2 5.1798 1.4148 7.99321
817 2 6.10258 1.40684 7.9829
818 2 7.05233 1.41723 8.00312
819 2 7.99492 1.40717 7.98384
820 2 8.92901 1.40794 7.99434
821 2 0.477127 2.34146 7.97473
822 2 1.40406 2.34927 8.00014
823 2 2.35045 2.35626 7.987
824 2 3.29783 2.3399 7.98742
825 2 4.22779 2.34988 8.00874
826 2 5.16511 2.3468 8.00046
827 2 6.11174 2.34971 7.98289
828 2 7.04744 2.35221 7.99097
829 2 7.98609 2.3607 7.99516
830 2 8.92988 2.35845 7.9886
831 2 0.466287 3.26836 7.9913
832 2 1.40679 3.29529 7.98885
833 2 2.35 3.30823 8.00073
834 2 3.29002 3.27839 7.97793
835 2 4.23126 3.2932 7.99503
836 2 5.16555 3.28075 7.99445
837 2 6.11479 3.30862 8.00011
838 2 7.04849 3.30946 7.99338
839 2 7.99812 3.29238 7.99207
840 2 8.93406 3.29005 7.99577
841 2 0.457971 4.21963 7.98518
842 2 1.41784 4.22737 7.98572
843 2 2.35422 4.23016 7.98846
844 2 3.31224 4.22468 7.98912
845 2 4.22328 4.21967 7.9876
846 2 5.17002 4.22765 7.98524
847 2 6.10549 4.23602 7.98505
848 2 7.03654 4.22328 7.9822
849 2 7.97271 4.21805 7.98837
850 2 8.94031 4.24631 7.98083
851 2 0.480064 5.1797 7.98196
852 2 1.42134 5.16765 7.99315
853 2 2.34741 5.15994 7.98683
854 2 3.30342 5.17878 7.99621
855 2 4.22198 5.1801 7.9982
856 2 5.17496 5.15974 7.99876
857 2 6.10312 5.19298 7.98736
858 2 7.04636 5.16715 7.99719
859 2 7.9852 5.18042 7.982
860 2 8.93676 5.16467 7.98163
861 2 0.478711 6.12172 7.99762
862 2 1.41022 6.10349 7.99698
863 2 2.35789 6.12027 7.98021
864 2 3.2966 6.11043 7.9848
865 2 4.23913 6.10697 7.97038
866 2 5.17914 6.10109 7.97716
867 2 6.1147 6.10431 7.99596
868 2 7.04921 6.1138 7.99901
869 2 7.99965 6.10849 7.97576
870 2 8.92318 6.1029 7.98939
871 2 0.470329 7.04795 7.99389
872 2 1.41877 7.04703 7.99265
873 2 2.35394 7.04819 7.99477
874 2 3.28504 7.05123 8.00801
875 2 4.23391 7.04199 7.99627
876 2 5.15319 7.04974 7.99748
877 2 6.09819 7.05092 8.00256
878 2 7.05645 7.04681 7.98605
879 2 7.99037 7.04895 7.97622
880 2 8.92389 7.04821 7.98908
881 2 0.477122 7.99601 7.97378
882 2 1.41209 7.97972 7.9935
883 2 2.34891 7.996 7.9828
884 2 3.29751 7.993 7.97462
885 2 4.23963 7.99131 7.98835
886 2 5.1819 8.00831 7.99021
887 2 6.11273 7.98807 7.99144
888 2 7.03581 7.98916 7.99804
889 2 7.99083 7.99866 7.99027
890 2 8.93568 7.9899 7.99972
891 2 0.454189 8.92572 7.99899
892 2 1.40969 8.93171 7.97937
893 2 2.3615 8.93091 7.97863
894 2 3.28699 8.92822 7.99216
895 2 4.23069 8.93422 7.98752
896 2 5.16498 8.93002 8.00246
897 2 6.10714 8.93531 7.99857
898 2 7.06143 8.92975 7.98762
899 2 7.98368 8.94141 7.98625
900 2 8.92998 8.93428 7.99413
901 2 0.466165 0.4642 8.94156
902 2 1.41219 0.461838 8.93435
903 2 2.35126 0.476133 8.93653
904 2 3.28325 0.470267 8.92493
905 2 4.23513 0.463606 8.92385
906 2 5.16125 0.462073 8.93588
907 2 6.12306 0.470727 8.93276
908 2 7.05125 0.477807 8.92382
909 2 7.98835 0.477993 8.93772
910 2 8.92395 0.466485 8.93242
911 2 0.46267 1.407 8.94974
912 2 1.40184 1.39581 8.93572
913 2 2.35576 1.41417 8.93026
914 2 3.28539 1.41833 8.93078
915 2 4.22599 1.40482 8.93835
916 2 5.1759 1.42086 8.9338
917 2 6.11011 1.42329 8.94061
918 2 7.06278 1.40238 8.93836
919 2 7.9841 1.41764 8.9325
920 2 8.93942 1.40719 8.93548
921 2 0.483068 2.35214 8.93252
922 2 1.40931 2.34336 8.92581
923 2 2.35932 2.35285 8.93013
924 2 3.29117 2.35308 8.9381
925 2 4.22924 2.35898 8.93439
926 2 5.17109 2.34782 8.92923
927 2 6.11527 2.35859 8.92211
928 2 7.05347 2.35566 8.94697
929 2 7.99241 2.35334 8.9274
930 2 8.93602 2.35056 8.92727
931 2 0.472859 3.29254 8.92487
932 2 1.41013 3.2912 8.92523
933 2 2.35281 3.28942 8.93417
934 2 3.3014 3.29483 8.93356
935 2 4.24335 3.28141 8.92883
936 2 5.16942 3.28438 8.93514
937 2 6.11112 3.3013 8.92539
938 2 7.04329 3.2917 8.92152
939 2 7.98016 3.29344 8.93167
940 2 8.92611 3.28742 8.93154
941 2 0.473383 4.22279 8.94309
942 2 1.41109 4.22098 8.93602
943 2 2.34926 4.23515 8.91704
944 2 3.29102 4.22259 8.92312
945 2 4.23262 4.22318 8.94289
946 2 5.15374 4.22794 8.94384
947 2 6.11845 4.22738 8.93705
948 2 7.05766 4.23 8.93591
949 2 7.9923 4.23243 8.92251
950 2 8.92912 4.22694 8.93173
951 2 0.462185 5.16539 8.93589
952 2 1.41326 5.16666 8.93055
953 2 2.35172 5.16506 8.92561
954 2 3.28833 5.1548 8.92984
955 2 4.22855 5.16674 8.92396
956 2 5.17463 5.15488 8.93216
957 2 6.1172 5.16591 8.93301
958 2 7.04338 5.16974 8.92805
959 2 7.99077 5.16172 8.93208
960 2 8.93763 5.17205 8.92747
961 2 0.471471 6.11004 8.92905
962 2 1.41337 6.10006 8.92461
963 2 2.34711 6.09832 8.92783
964 2 3.29067 6.1038 8.93552
965 2 4.22004 6.11707 8.93365
966 2 5.16701 6.10395 8.92869
967 2 6.10753 6.11091 8.91603
968 2 7.06085 6.11506 8.92977
969 2 7.99268 6.1064 8.93358
970 2 8.93477 6.11222 8.93967
971 2 0.485232 7.04955 8.92732
972 2 1.41241 7.04779 8.92757
973 2 2.35164 7.05478 8.922
974 2 3.30135 7.05223 8.94143
975 2 4.21409 7.04645 8.93239
976 2 5.17539 7.03275 8.91766
977 2 6.11226 7.05018 8.92891
978 2 7.05329 7.04574 8.93178
979 2 8.00263 7.04734 8.92549
980 2 8.92777 7.04997 8.92172
981 2 0.462532 8.00795 8.93264
982 2 1.41907 7.99033 8.92964
983 2 2.34043 8.00856 8.92418
984 2 3.27405 7.98778 8.92838
985 2 4.23294 7.98745 8.92805
986 2 5.16675 7.99329 8.92389
987 2 6.11345 7.99826 8.93615
988 2 7.05065 7.99702 8.93655
989 2 7.98603 7.97829 8.93123
990 2 8.93082 7.98329 8.94068
991 2 0.465472 8.92379 8.93558
992 2 1.41134 8.92774 8.93125
993 2 2.35075 8.92771 8.92906
994 2 3.29113 8.93565 8.92153
995 2 4.22914 8.9288 8.92599
996 2 5.16078 8.93227 8.94411
997 2 6.1096 8.93382 8.92667
998 2 7.04184 8.92868 8.92315
999 2 7.98458 8.94485 8.93592
1000 2 8.94036 8.9295 8.93334
ITEM: TIMESTEP
3
ITEM: NUMBER OF ATOMS
200
ITEM: BOX BOUNDS pp pp pp
0.0000000000000000e+00 9.4000000000000004e+00
0.0000000000000000e+00 9.4000000000000004e+00
0.0000000000000000e+00 9.4000000000000004e+00
ITEM: ATOMS id type x y z
801 2 0.484679 0.468736 7.98469
802 2 1.39688 0.483048 7.98024
803 2 2.33286 0.441882 7.97864
804 2 3.28645 0.470881 7.99177
805 2 4.21881 0.455124 7.98225
806 2 5.16581 0.465152 7.99145
807 2 6.10294 0.455538 7.99143
808 2 7.05803 0.46812 7.9962
809 2 7.98753 0.472733 8.00044
810 2 8.94197 0.469801 7.97829
811 2 0.465254 1.41231 7.98798
812 2 1.41213 1.40926 7.99424
813 2 2.33501 1.41504 7.9873
814 2 3.28252 1.42797 8.00818
815 2 4.23052 1.41989 7.98961
816 2 5.18462 1.41715 7.9945
817 2 6.09895 1.40525 7.97909
818 2 7.05348 1.42081 8.00935
819 2 7.99735 1.40581 7.98047
820 2 8.92853 1.40695 7.99621
821 2 0.48063 2.33717 7.96681
822 2 1.40115 2.34892 8.00484
823 2 2.35069 2.35942 7.9852
824 2 3.3017 2.33492 7.98586
825 2 4.22671 2.34985 8.01775
826 2 5.16269 2.34521 8.00535
827 2 6.11257 2.3496 7.97905
828 2 7.04617 2.35338 7.99118
829 2 7.98415 2.36599 7.99741
830 2 8.92983 2.36262 7.98761
831 2 0.464456 3.25761 7.99161
832 2 1.40519 3.2979 7.98796
833 2 2.34998 3.31726 8.00577
834 2 3.29003 3.2726 7.97161
835 2 4.23187 3.29475 7.99724
836 2 5.16336 3.27615 7.99639
837 2 6.11714 3.31785 8.0048
838 2 7.04778 3.31906 7.99473
839 2 8.00215 3.29354 7.99279
840 2 8.93608 3.29014 7.99832
841 2 0.452082 4.21446 7.98252
842 2 1.4217 4.22608 7.98333
843 2 2.35638 4.23026 7.98734
844 2 3.32321 4.22204 7.98835
845 2 4.22005 4.2146 7.98616
846 2 5.17 4.22643 7.9826
847 2 6.10322 4.23911 7.98231
848 2 7.02982 4.22003 7.97806
849 2 7.96413 4.21217 7.98722
850 2 8.94533 4.25435 7.97597
851 2 0.485092 5.18451 7.97769
852 2 1.42697 5.16646 7.99439
853 2 2.3462 5.15499 7.98495
854 2 3.31001 5.18311 7.99897
855 2 4.21808 5.18506 8.00194
856 2 5.17737 5.15463 8.0028
857 2 6.09972 5.20433 7.98574
858 2 7.04452 5.16573 8.00043
859 2 7.98284 5.18554 7.97773
860 2 8.94012 5.16208 7.97716
861 2 0.482998 6.12753 8.00112
862 2 1.41037 6.10025 8.00012
863 2 2.36181 6.12533 7.97503
864 2 3.29992 6.11069 7.98193
865 2 4.24369 6.10549 7.96035
866 2 5.1837 6.09665 7.97053
867 2 6.11705 6.10159 7.99855
868 2 7.04887 6.11566 8.00319
869 2 8.0044 6.10778 7.96838
870 2 8.91987 6.09937 7.98882
871 2 0.470494 7.04699 7.9955
872 2 1.42312 7.04551 7.99365
873 2 2.3559 7.04735 7.99681
874 2 3.28261 7.05185 8.01669
875 2 4.23577 7.03802 7.99909
876 2 5.14486 7.04964 8.00083
877 2 6.09232 7.05136 8.00848
878 2 7.05962 7.04524 7.98378
879 2 7.99055 7.04845 7.96907
880 2 8.92087 7.0473 7.98831
881 2 0.480668 7.99897 7.96541
882 2 1.41315 7.97463 7.99494
883 2 2.34839 7.99896 7.97893
884 2 3.30125 7.99449 7.96671
885 2 4.24446 7.99194 7.98721
886 2 5.18783 8.01736 7.98997
887 2 6.11407 7.98713 7.99187
888 2 7.0288 7.98873 8.00174
889 2 7.99122 8.00297 7.9901
890 2 8.93852 7.98985 8.00428
891 2 0.446368 8.92362 8.00316
892 2 1.40953 8.93255 7.97381
893 2 2.36717 8.93131 7.97269
894 2 3.28555 8.92734 7.9929
895 2 4.231 8.93628 7.98597
896 2 5.16249 8.93008 8.00839
897 2 6.10575 8.93789 8.00251
898 2 7.06706 8.92962 7.98614
899 2 7.98059 8.94708 7.98409
900 2 8.9299 8.9364 7.99588
901 2 0.464253 0.461302 8.94759
902 2 1.41327 0.457751 8.93679
903 2 2.35187 0.479175 8.94006
904 2 3.27993 0.47044 8.92272
905 2 4.23763 0.460426 8.92108
906 2 5.15697 0.458185 8.93909
907 2 6.12951 0.471131 8.93445
908 2 7.05191 0.481633 8.92106
909 2 7.98751 0.482019 8.94187
910 2 8.92094 0.464737 8.93389
911 2 0.459054 1.40551 8.95984
912 2 1.39779 1.38875 8.93887
913 2 2.35857 1.41626 8.93067
914 2 3.28312 1.42246 8.9315
915 2 4.22401 1.40227 8.94279
916 2 5.1788 1.42621 8.93599
917 2 6.11021 1.42989 8.94617
918 2 7.06908 1.39865 8.94286
919 2 7.98125 1.42145 8.93402
920 2 8.94403 1.40579 8.93849
921 2 0.48954 2.35319 8.93405
922 2 1.40904 2.34004 8.92408
923 2 2.36393 2.35426 8.93049
924 2 3.29177 2.35464 8.94243
925 2 4.22887 2.36338 8.93695
926 2 5.17165 2.34675 8.9292
927 2 6.11789 2.36291 8.91848
928 2 7.05521 2.35844 8.95572
929 2 7.99364 2.35502 8.92643
930 2 8.93904 2.35082 8.92619
931 2 0.474263 3.29378 8.92264
932 2 1.41021 3.29175 8.92315
933 2 2.35423 3.28916 8.93658
934 2 3.30709 3.29721 8.9356
935 2 4.24998 3.27717 8.92856
936 2 5.16918 3.28158 8.93803
937 2 6.11165 3.3069 8.92343
938 2 7.03995 3.29256 8.91764
939 2 7.97525 3.29517 8.93282
940 2 8.92416 3.28614 8.93263
941 2 0.475063 4.21923 8.94988
942 2 1.41164 4.21651 8.93928
943 2 2.3489 4.23767 8.91091
944 2 3.29152 4.2189 8.91999
945 2 4.23385 4.21977 8.94959
946 2 5.14574 4.22685 8.951
947 2 6.12262 4.2261 8.94084
948 2 7.06148 4.23 8.93912
949 2 7.99346 4.23362 8.9191
950 2 8.9287 4.22542 8.93287
951 2 0.458358 5.16309 8.93909
952 2 1.41486 5.16495 8.93112
953 2 2.35257 5.16261 8.92373
954 2 3.28751 5.14723 8.93009
955 2 4.22785 5.16512 8.9213
956 2 5.17694 5.14739 8.93356
957 2 6.12075 5.16388 8.9348
958 2 7.04014 5.16963 8.9274
959 2 7.99115 5.15762 8.93338
960 2 8.94137 5.17307 8.9265
961 2 0.47222 6.11004 8.92891
962 2 1.41502 6.09513 8.92227
963 2 2.34569 6.09254 8.92701
964 2 3.29095 6.1007 8.93856
965 2 4.21511 6.12054 8.93573
966 2 5.1655 6.10086 8.92831
967 2 6.10632 6.11135 8.90942
968 2 7.06622 6.11755 8.92999
969 2 7.99405 6.10459 8.93565
970 2 8.93714 6.11333 8.9448
971 2 0.492766 7.04938 8.92632
972 2 1.41366 7.04667 8.92669
973 2 2.3525 7.05717 8.91836
974 2 3.3069 7.0533 8.94745
975 2 4.20628 7.04471 8.93388
976 2 5.17802 7.0242 8.91187
977 2 6.1134 7.05029 8.92873
978 2 7.05496 7.04367 8.93296
979 2 8.00887 7.04598 8.92352
980 2 8.92675 7.04994 8.91791
981 2 0.458862 8.0168 8.93422
982 2 1.42351 7.99047 8.92978
983 2 2.33569 8.01774 8.92155
984 2 3.26614 7.9867 8.92783
985 2 4.23435 7.98618 8.92738
986 2 5.16516 7.99488 8.92115
987 2 6.11515 8.00235 8.93953
988 2 7.05098 8.00047 8.94013
989 2 7.98407 7.97252 8.93213
990 2 8.93119 7.97996 8.9463
991 2 0.463278 8.92078 8.93866
992 2 1.41199 8.92659 8.93215
993 2 2.35113 8.92666 8.92886
994 2 3.29169 8.93843 8.91763
995 2 4.22869 8.92817 8.92431
996 2 5.15622 8.93338 8.95144
997 2 6.10935 8.93573 8.92536
998 2 7.03779 8.92807 8.92003
999 2 7.98191 8.95219 8.93918
1000 2 8.94545 8.92922 8.93532
ITEM: TIMESTEP
4
ITEM: NUMBER OF ATOMS
200
ITEM: BOX BOUNDS pp pp pp
0.0000000000000000e+00 9.4000000000000004e+00
0.0000000000000000e+00 9.4000000000000004e+00
0.0000000000000000e+00 9.4000000000000004e+00
ITEM: ATOMS id type x y z
801 2 0.489441 0.468298 7.98258
802 2 1.39262 0.487319 7.97666
803 2 2.32719 0.432727 7.97452
804 2 3.28519 0.471225 7.9919
805 2 4.21513 0.450322 7.97928
806 2 5.16438 0.463592 7.99156
807 2 6.10065 0.450843 7.99151
808 2 7.06062 0.467532 7.99778
809 2 7.9868 0.473676 8.00354
810 2 8.94594 0.469751 7.97407
811 2 0.463703 1.413 7.98699
812 2 1.41274 1.40906 7.99527
813 2 2.33012 1.41664 7.98601
814 2 3.28002 1.43375 8.01379
815 2 4.23071 1.42308 7.98912
816 2 5.18933 1.41945 7.99559
817 2 6.09543 1.40364 7.97514
818 2 7.0546 1.42435 8.01535
819 2 7.99976 1.40449 7.97693
820 2 8.92805 1.40599 7.99789
821 2 0.48406 2.33287 7.95872
822 2 1.39831 2.3486 8.00928
823 2 2.35092 2.3626 7.98321
824 2 3.30552 2.33004 7.98413
825 2 4.22565 2.34986 8.0265
826 2 5.1603 2.34363 8.00998
827 2 6.11336 2.34954 7.97503
828 2 7.04491 2.35461 7.99122
829 2 7.98222 2.37121 7.99943
830 2 8.92979 2.36673 7.98647
831 2 0.462659 3.24693 7.99169
832 2 1.4036 3.30046 7.98689
833 2 2.34996 3.32619 8.01059
834 2 3.29005 3.26683 7.96513
835 2 4.23245 3.29623 7.99927
836 2 5.16122 3.27159 7.99815
837 2 6.11944 3.32698 8.00921
838 2 7.04715 3.32848 7.99584
839 2 8.00615 3.29468 7.99331
840 2 8.93808 3.29033 8.00065
841 2 0.446349 4.2093 7.97972
842 2 1.42551 4.22482 7.98082
843 2 2.35862 4.23041 7.98597
844 2 3.33398 4.21942 7.98737
845 2 4.217 4.20964 7.98459
846 2 5.16994 4.22515 7.97983
847 2 6.10092 4.24232 7.97944
848 2 7.02311 4.21692 7.97378
849 2 7.95562 4.2064 7.98584
850 2 8.95017 4.26225 7.97096
851 2 0.490113 5.18929 7.97329
852 2 1.43253 5.16525 7.99541
853 2 2.34509 5.15013 7.9829
854 2 3.31645 5.18737 8.00149
855 2 4.21432 5.18992 8.00542
856 2 5.17969 5.14955 8.0066
857 2 6.09637 5.2155 7.98392
858 2 7.04267 5.16431 8.00342
859 2 7.98051 5.19056 7.9733
860 2 8.94347 5.15959 7.9725
861 2 0.487208 6.13328 8.0044
862 2 1.41058 6.09703 8.00299
863 2 2.3657 6.13028 7.96966
864 2 3.30325 6.11098 7.97889
865 2 4.24826 6.10404 7.95021
866 2 5.18826 6.09223 7.96383
867 2 6.1194 6.09905 8.00084
868 2 7.04857 6.11748 8.00715
869 2 8.00904 6.10713 7.96085
870 2 8.91667 6.09586 7.98809
871 2 0.470657 7.04612 7.99686
872 2 1.42743 7.04394 7.99443
873 2 2.35784 7.04658 7.9986
874 2 3.28023 7.05248 8.02515
875 2 4.2375 7.03409 8.00171
876 2 5.13663 7.04956 8.00389
877 2 6.08647 7.05176 8.01412
878 2 7.06272 7.04371 7.98133
879 2 7.99073 7.04798 7.96179
880 2 8.91789 7.04638 7.98735
881 2 0.484196 8.00186 7.95689
882 2 1.41421 7.96959 7.99616
883 2 2.34792 8.00188 7.97491
884 2 3.30497 7.99595 7.95873
885 2 4.24928 7.99256 7.98586
886 2 5.19373 8.02629 7.9895
887 2 6.11536 7.98623 7.99213
888 2 7.02191 7.9883 8.00523
889 2 7.99158 8.00727 7.98973
890 2 8.94136 7.98981 8.00864
891 2 0.43865 8.92158 8.00713
892 2 1.40936 8.93338 7.96813
893 2 2.37276 8.93163 7.96661
894 2 3.28417 8.92649 7.99338
895 2 4.23129 8.93826 7.98424
896 2 5.16003 8.93022 8.01413
897 2 6.10438 8.94038 8.00619
898 2 7.07256 8.92948 7.98448
899 2 7.9776 8.95271 7.98176
900 2 8.92972 8.93849 7.99742
901 2 0.462349 0.458409 8.95375
902 2 1.41433 0.453659 8.93938
903 2 2.35245 0.482192 8.94372
904 2 3.27667 0.470656 8.92073
905 2 4.24003 0.457266 8.9185
906 2 5.15281 0.454386 8.94244
907 2 6.13585 0.47158 8.93633
908 2 7.05261 0.485365 8.91855
909 2 7.98667 0.48608 8.94617
910 2 8.91795 0.463001 8.9355
911 2 0.455506 1.40403 8.97007
912 2 1.39379 1.38173 8.9422
913 2 2.3613 1.41836 8.93125
914 2 3.28088 1.42655 8.93246
915 2 4.22205 1.39974 8.94739
916 2 5.18165 1.43145 8.93836
917 2 6.11038 1.43644 8.95186
918 2 7.07526 1.39502 8.94758
919 2 7.97852 1.42526 8.93569
920 2 8.94853 1.4044 8.94165
921 2 0.495933 2.35424 8.93575
922 2 1.40886 2.33671 8.92262
923 2 2.36849 2.35567 8.93103
924 2 3.29241 2.35622 8.94693
925 2 4.22852 2.36766 8.93976
926 2 5.17221 2.34573 8.92941
927 2 6.12049 2.36726 8.91505
928 2 7.05696 2.36116 8.96463
929 2 7.99488 2.35672 8.92571
930 2 8.94208 2.35105 8.92531
931 2 0.475636 3.29499 8.92063
932 2 1.41032 3.29224 8.92127
933 2 2.35567 3.28893 8.93923
934 2 3.31277 3.29954 8.93776
935 2 4.25656 3.27302 8.9285
936 2 5.16901 3.27881 8.94113
937 2 6.11214 3.31244 8.92171
938 2 7.03661 3.29342 8.914
939 2 7.97037 3.29689 8.93418
940 2 8.92222 3.28486 8.93395
941 2 0.47673 4.21571 8.95677
942 2 1.41219 4.21209 8.94265
943 2 2.34854 4.24014 8.90502
944 2 3.29202 4.21522 8.91706
945 2 4.23498 4.21637 8.95643
946 2 5.13787 4.2257 8.95827
947 2 6.12673 4.22488 8.94478
948 2 7.0653 4.23 8.94248
949 2 7.99463 4.23476 8.91592
950 2 8.9283 4.22392 8.93419
951 2 0.454632 5.16079 8.94243
952 2 1.41641 5.16319 8.93188
953 2 2.35341 5.16017 8.92207
954 2 3.28669 5.13971 8.93057
955 2 4.22717 5.16353 8.91891
956 2 5.17925 5.13997 8.93517
957 2 6.12424 5.16187 8.93676
958 2 7.03697 5.16954 8.92697
959 2 7.99152 5.15357 8.9348
960 2 8.94503 5.17408 8.92571
961 2 0.472985 6.11003 8.92901
962 2 1.41665 6.09024 8.92018
963 2 2.3443 6.08682 8.92632
964 2 3.29118 6.09759 8.94176
965 2 4.21025 6.12396 8.93796
966 2 5.16397 6.09769 8.9281
967 2 6.10516 6.11177 8.90311
968 2 7.07151 6.11998 8.93043
969 2 7.99545 6.10277 8.93789
970 2 8.9395 6.11443 8.95009
971 2 0.500203 7.04926 8.92555
972 2 1.41496 7.04554 8.92602
973 2 2.35339 7.05955 8.91499
974 2 3.3123 7.05434 8.95366
975 2 4.19867 7.04303 8.93553
976 2 5.1806 7.01574 8.90636
977 2 6.11456 7.05044 8.92882
978 2 7.05665 7.04167 8.93431
979 2 8.01503 7.04458 8.9217
980 2 8.92584 7.0499 8.91434
981 2 0.455265 8.02548 8.93596
982 2 1.42781 7.99059 8.93011
983 2 2.331 8.02679 8.9191
984 2 3.25829 7.98565 8.92743
985 2 4.23567 7.9849 8.9269
986 2 5.16362 7.99642 8.91864
987 2 6.11682 8.00641 8.94308
988 2 7.0513 8.00386 8.94391
989 2 7.98214 7.96684 8.9332
990 2 8.93151 7.97668 8.95208
991 2 0.461172 8.91789 8.94191
992 2 1.41261 8.92543 8.93323
993 2 2.35152 8.92574 8.92883
994 2 3.29225 8.94118 8.91397
995 2 4.22822 8.92752 8.92284
996 2 5.15172 8.93445 8.95893
997 2 6.10903 8.93766 8.92431
998 2 7.03377 8.92751 8.91709
999 2 7.97926 8.95944 8.94263
1000 2 8.95045 8.92891 8.93751
ITEM: TIMESTEP
5
ITEM: NUMBER OF ATOMS
200
ITEM: BOX BOUNDS pp pp pp
0.0000000000000000e+00 9.4000000000000004e+00
0.0000000000000000e+00 9.4000000000000004e+00
0.0000000000000000e+00 9.4000000000000004e+00
ITEM: ATOMS id type x y z
801 2 0.494077 0.467845 7.98033
802 2 1.38847 0.491524 7.97294
803 2 2.32155 0.423762 7.97027
804 2 3.28387 0.471607 7.9918
805 2 4.21149 0.445654 7.97614
806 2 5.16291 0.462079 7.99151
807 2 6.0984 0.446261 7.9914
808 2 7.06313 0.466974 7.99909
809 2 7.98614 0.474648 8.00646
810 2 8.94987 0.469716 7.96975
811 2 0.462176 1.41363 7.98588
812 2 1.41328 1.40892 7.99614
813 2 2.32531 1.41818 7.98457
814 2 3.27751 1.43933 8.01916
815 2 4.23091 1.42618 7.98847
816 2 5.19391 1.42169 7.99648
817 2 6.09206 1.40201 7.97109
818 2 7.05569 1.42784 8.02114
819 2 8.00213 1.40325 7.97323
820 2 8.9276 1.40508 7.99941
821 2 0.487391 2.32853 7.95048
822 2 1.39556 2.34831 8.01343
823 2 2.35117 2.36583 7.98105
824 2 3.30927 2.32529 7.98225
825 2 4.22463 2.34993 8.03497
826 2 5.15795 2.34205 8.01435
827 2 6.11409 2.34952 7.97088
828 2 7.04366 2.35593 7.99111
829 2 7.98032 2.37635 8.00121
830 2 8.92977 2.37077 7.98521
831 2 0.460904 3.23634 7.99152
832 2 1.40201 3.30296 7.98564
833 2 2.34991 3.33497 8.01519
834 2 3.29006 3.26107 7.9585
835 2 4.233 3.29763 8.00111
836 2 5.15915 3.26709 7.99978
837 2 6.12167 3.33597 8.01333
838 2 7.04659 3.33766 7.99671
839 2 8.01009 3.29578 7.99362
840 2 8.94008 3.29062 8.00275
841 2 0.440831 4.20415 7.9768
842 2 1.42924 4.22359 7.97823
843 2 2.36093 4.23062 7.98432
844 2 3.34446 4.21682 7.98616
845 2 4.21421 4.20482 7.98294
846 2 5.16982 4.22378 7.97695
847 2 6.0986 4.24566 7.97646
848 2 7.01641 4.21401 7.9694
849 2 7.94718 4.20077 7.98423
850 2 8.95478 4.26996 7.96582
851 2 0.495127 5.19402 7.96881
852 2 1.43802 5.16403 7.99621
853 2 2.34412 5.14538 7.98071
854 2 3.32268 5.19154 8.00376
855 2 4.21076 5.19464 8.00863
856 2 5.1819 5.14451 8.01015
857 2 6.09309 5.2264 7.98193
858 2 7.04079 5.16289 8.00615
859 2 7.97822 5.19545 7.96875
860 2 8.94678 5.15724 7.96767
861 2 0.49132 6.13895 8.00748
862 2 1.41086 6.09385 8.00559
863 2 2.36956 6.13511 7.96413
864 2 3.3066 6.11132 7.97572
865 2 4.25283 6.10265 7.94004
866 2 5.1928 6.08784 7.95718
867 2 6.12176 6.09676 8.00279
868 2 7.04833 6.11923 8.01089
869 2 8.01354 6.10656 7.9532
870 2 8.91364 6.09237 7.98724
871 2 0.470817 7.04537 7.99797
872 2 1.43169 7.04232 7.99498
873 2 2.35976 7.04592 8.00015
874 2 3.27792 7.05311 8.03338
875 2 4.23905 7.03021 8.00414
876 2 5.12854 7.04951 8.00661
877 2 6.08065 7.05212 8.01948
878 2 7.06573 7.04222 7.97872
879 2 7.99091 7.04755 7.95442
880 2 8.91496 7.04545 7.9862
881 2 0.487702 8.00468 7.94825
882 2 1.41529 7.96464 7.99717
883 2 2.3475 8.00475 7.97079
884 2 3.30868 7.99737 7.95081
885 2 4.25411 7.99316 7.98431
886 2 5.19958 8.03506 7.98879
887 2 6.1166 7.98536 7.99225
888 2 7.01517 7.98787 8.00851
889 2 7.99191 8.01154 7.98918
890 2 8.94419 7.98978 8.01283
891 2 0.43107 8.9196 8.01088
892 2 1.40918 8.9342 7.96239
893 2 2.37823 8.93184 7.96041
894 2 3.2829 8.92566 7.99361
895 2 4.23153 8.94015 7.98234
896 2 5.15759 8.93045 8.0197
897 2 6.10306 8.94274 8.0096
898 2 7.07791 8.92932 7.98269
899 2 7.97475 8.95828 7.97926
900 2 8.92941 8.94054 7.99876
901 2 0.460454 0.455521 8.96001
902 2 1.41537 0.449559 8.9421
903 2 2.35299 0.485174 8.94748
904 2 3.2735 0.470932 8.91896
905 2 4.24231 0.454134 8.91611
906 2 5.14879 0.450701 8.94589
907 2 6.14207 0.472087 8.93841
908 2 7.05337 0.488968 8.91627
909 2 7.98582 0.49019 8.95061
910 2 8.91497 0.461281 8.9372
911 2 0.452054 1.40257 8.98037
912 2 1.38983 1.37476 8.94569
913 2 2.36393 1.42046 8.93197
914 2 3.27871 1.43059 8.93366
915 2 4.22013 1.39726 8.95211
916 2 5.18443 1.43656 8.94088
917 2 6.11062 1.44294 8.95767
918 2 7.08128 1.39151 8.95252
919 2 7.97597 1.42904 8.93748
920 2 8.95288 1.40301 8.94491
921 2 0.502218 2.35526 8.93759
922 2 1.40882 2.33337 8.92145
923 2 2.37296 2.35706 8.93174
924 2 3.29307 2.35784 8.95158
925 2 4.22818 2.37179 8.94284
926 2 5.17277 2.34477 8.92988
927 2 6.12306 2.37166 8.91182
928 2 7.05871 2.36381 8.97367
929 2 7.99615 2.35844 8.92523
930 2 8.94514 2.35124 8.92459
931 2 0.476971 3.29616 8.91886