LAMMPS (17 Apr 2024)
OMP_NUM_THREADS environment is not set. Defaulting to 1 thread. (src/comm.cpp:98)
  using 1 OpenMP thread(s) per MPI task
Loaded 1 plugins from C:\Users\emanu\AppData\Local\LAMMPS 64-bit 17Apr2024\plugins
# KALJ NVE, logaritmic time steps, save atom positions

atom_style atomic
boundary p p p                                          # periodic boundary conditions in each direction

read_data configurazione_iniziale_Python_NVE_T041eq.data # read data file (including mass info), Temperature = 0.41K
Reading data file ...
  orthogonal box = (0 0 0) to (9.4 9.4 9.4)
  1 by 1 by 1 MPI processor grid
  reading atoms ...
  1000 atoms
  reading velocities ...
  1000 velocities
  read_data CPU = 0.037 seconds

# Define interaction potential
pair_style lj/cut 2.5
pair_coeff 1 1 1.0 1.0 2.5 # type type eps sigma rcut
pair_coeff 1 2 1.5 0.80 2.0 # typeA typeB epsAB sigmaAB rcutAB=2.5*0.8=2.0
pair_coeff 2 2 0.5 0.88 2.2 # typeB typeB epsBB sigmaBB rcutBB=2.5*0.88=2.2

timestep 0.005 # Delta t
neighbor 0.3 bin
neigh_modify every 1 delay 0 check yes                  # Update neighbor

group A type 1
800 atoms in group A
group B type 2
200 atoms in group B

# Variables for logarithmic time steps
variable tmsd equal logfreq3(1,200,10000000)
variable tLJ equal step*dt

# Dump command to save positions of atoms in groups A and B
dump posA A custom 5000 dump_A_positions_T_041.lammpstrj id type x y z
dump posB B custom 5000 dump_B_positions_T_041.lammpstrj id type x y z

# Modify dump to sort by atom id and output at logarithmic intervals
dump_modify posA sort id every v_tmsd
dump_modify posB sort id every v_tmsd

# Set numerical integrator
fix nve1 all nve

# Run the simulation
run 10000000
Generated 0 of 1 mixed pair_coeff terms from geometric mixing rule
Neighbor list info ...
  update: every = 1 steps, delay = 0 steps, check = yes
  max neighbors/atom: 2000, page size: 100000
  master list distance cutoff = 2.8
  ghost atom cutoff = 2.8
  binsize = 1.4, bins = 7 7 7
  1 neighbor lists, perpetual/occasional/extra = 1 0 0
  (1) pair lj/cut, perpetual
      attributes: half, newton on
      pair build: half/bin/atomonly/newton
      stencil: half/bin/3d
      bin: standard
Per MPI rank memory allocation (min/avg/max) = 3.184 | 3.184 | 3.184 Mbytes
   Step          Temp          E_pair         E_mol          TotEng         Press     
         0   0.41041041     1.0571021      0              1.6721021      52.647149    
